! Touchstone data
! Created: 22-Apr-2025 by IdEM 2023 (2023.0.0)
!
!*********************************************************
! COMMENTS
!*********************************************************
!
!  Touchstone file exported from Ansys Full-Wave Spice
!  Project: 0000_PSI_S-parameter_Sweep
!   Design: unknown
!  Creation time: Tue Apr 22 09:41:47 2025
!  Notes: ! Touchstone(R) file created by SIwave 2025 R1
!       : ! Touchstone(R) file created on Tue Apr 22 09:41:47 2025
! 
!  Modal data exported
!  Port[1] = PORT_3_L27_SOC_VGPU_Group_U41_GND_Group
!  Port[2] = PORT_4_U1_SOC_VGPU_Group_U1_GRP_1_0_GND
!  Port[3] = SOC_VGPU_C458_1
!  Port[4] = SOC_VGPU_C459_1
!  Port[5] = SOC_VGPU_C460_1
!  Port[6] = SOC_VGPU_C461_1
!  Port[7] = SOC_VGPU_C462_1
!  Port[8] = SOC_VGPU_C463_1
!  Port[9] = SOC_VGPU_C551_1
!  Port[10] = SOC_VGPU_C551_3
!  Port[11] = SOC_VGPU_C552_1
!  Port[12] = SOC_VGPU_C552_3
!  Port[13] = SOC_VGPU_C553_1
!  Port[14] = SOC_VGPU_C553_3
!  Port[15] = SOC_VGPU_C645_1
!
!*********************************************************
!
!
!---------------------------
! Options Used in IdEM Flow
!---------------------------
!
! Fitting Options !
!
! Bandwidth: 1.0000e+09 Hz
! Order: [2 2 6] 
! SplitType: none 
! tol: 1.0000e-03 
! DC Point: enforced 
!
!---------------------------
!
! Passivity Options !
!
! Alg: SOC+HAM 
!    Max SOC it: 200 
!    Max HAM it: 50 
! Freq sampling: adaptive
! DC Point: enforced
! Optimization method: Model based
!
!---------------------------
!

# Hz S MA R 0.1

!
                   0    0.857408401415288                  180   0.1336556325576519                    0   0.1328479515946682                    0   0.1331054562144302                    0
  0.1336569985164855                    0    0.133416099320354                    0   0.1330707754814071                    0   0.1331147858442545                    0
  0.1314168645966385                    0    0.131384156781968                    0    0.131559542606417                    0   0.1311816116624738                    0
  0.1314733835606282                    0   0.1313046443745714                    0   0.1362204971931162                    0
   0.133655632557652                    0   0.8559743242644487                  180   0.1326401061977407                    0   0.1327399071095681                    0
  0.1328605159230462                    0   0.1330858906111001                    0   0.1334990127902821                    0   0.1334739540141097                    0
  0.1318183094054064                    0   0.1316920241247012                    0   0.1319399636873577                    0   0.1317142987621543                    0
  0.1320360544888497                    0   0.1319544939773025                    0   0.1328641595049546                    0
  0.1328479515946683                    0   0.1326401061977407                    0   0.8467683468234488                  180   0.1335671985546389                    0
  0.1317920718789116                    0   0.1310553010674002                    0   0.1311220763414448                    0   0.1309423715398567                    0
  0.1297684053485864                    0   0.1301203872755339                    0   0.1307549465696302                    0   0.1313106495093524                    0
  0.1327632749710979                    0   0.1363558729831538                    0   0.1317277318812117                    0
  0.1331054562144301                    0   0.1327399071095682                    0    0.133567198554639                    0   0.8506241019027986                  180
  0.1329836149543724                    0   0.1316323719194827                    0   0.1316293435851024                    0   0.1314073428440076                    0
  0.1304774263621099                    0   0.1308920446047818                    0   0.1320256073526836                    0   0.1336183653269591                    0
  0.1329697187668458                    0   0.1316482591998905                    0   0.1319274439977028                    0
  0.1336569985164856                    0   0.1328605159230463                    0   0.1317920718789116                    0   0.1329836149543722                    0
  0.8514044917843109                  180   0.1329518009242664                    0   0.1325501041100646                    0    0.132225820180132                    0
  0.1317628031392355                    0   0.1333794997822945                    0   0.1327327675320696                    0   0.1309298307285199                    0
  0.1308024688395735                    0   0.1305073212895378                    0   0.1322688728755786                    0
  0.1334160993203542                    0   0.1330858906111002                    0      0.1310553010674                    0    0.131632371919483                    0
  0.1329518009242663                    0   0.8496084387294267                  180   0.1359359816243643                    0   0.1342177761132042                    0
  0.1332027059092313                    0   0.1309108268299385                    0   0.1307119603352379                    0   0.1301049272499624                    0
  0.1301375491101607                    0   0.1299172546821299                    0   0.1323279919223712                    0
  0.1330707754814072                    0   0.1334990127902823                    0   0.1311220763414448                    0   0.1316293435851026                    0
  0.1325501041100649                    0   0.1359359816243645                    0   0.8521554151693985                  180   0.1352129798334158                    0
  0.1339798722061259                    0   0.1312275119977183                    0   0.1310024726860569                    0   0.1303220262852813                    0
  0.1303406482135427                    0    0.130112635416356                    0   0.1321499734880129                    0
  0.1331147858442547                    0   0.1334739540141096                    0   0.1309423715398567                    0    0.131407342844008                    0
  0.1322258201801319                    0   0.1342177761132045                    0   0.1352129798334156                    0   0.8459866091576269                  180
  0.1315533086819079                    0    0.130756550764705                    0     0.13058873036922                    0   0.1300525058568473                    0
  0.1300918837065448                    0   0.1299215173822761                    0   0.1324270809169212                    0
  0.1314168645966388                    0   0.1318183094054066                    0   0.1297684053485859                    0   0.1304774263621107                    0
  0.1317628031392356                    0   0.1332027059092313                    0   0.1339798722061258                    0    0.131553308681908                    0
  0.8459563421552772                  180   0.1441189752874453                    0   0.1300655021639597                    0   0.1294245755385826                    0
  0.1290571841690729                    0   0.1288307053265991                    0   0.1304797029101513                    0
  0.1313841567819679                    0   0.1316920241247015                    0   0.1301203872755343                    0   0.1308920446047816                    0
  0.1333794997822942                    0    0.130910826829938                    0   0.1312275119977186                    0   0.1307565507647053                    0
  0.1441189752874452                    0    0.846895809937672                  180   0.1334086480533649                    0    0.129909542413797                    0
  0.1295617474081842                    0   0.1292256641498758                    0   0.1303082293531402                    0
  0.1315595426064174                    0   0.1319399636873574                    0   0.1307549465696299                    0   0.1320256073526835                    0
  0.1327327675320696                    0    0.130711960335238                    0   0.1310024726860564                    0   0.1305887303692201                    0
  0.1300655021639598                    0   0.1334086480533644                    0   0.8497304430967069                  180   0.1438753097987097                    0
  0.1304515789715208                    0   0.1301304676614625                    0   0.1304829441987947                    0
  0.1311816116624736                    0   0.1317142987621543                    0   0.1313106495093532                    0   0.1336183653269589                    0
  0.1309298307285198                    0   0.1301049272499624                    0   0.1303220262852811                    0   0.1300525058568478                    0
  0.1294245755385823                    0   0.1299095424137975                    0   0.1438753097987092                    0   0.8470522750746061                  180
  0.1337019985851972                    0   0.1307550219468366                    0   0.1301516102997096                    0
   0.131473383560628                    0   0.1320360544888498                    0   0.1327632749710978                    0   0.1329697187668464                    0
  0.1308024688395734                    0   0.1301375491101605                    0    0.130340648213542                    0   0.1300918837065446                    0
  0.1290571841690745                    0   0.1295617474081829                    0   0.1304515789715228                    0   0.1337019985851956                    0
  0.8490062320172694                  180   0.1451805610282242                    0    0.130438179087605                    0
  0.1313046443745719                    0   0.1319544939773026                    0   0.1363558729831533                    0   0.1316482591998902                    0
  0.1305073212895385                    0     0.12991725468213                    0   0.1301126354163566                    0   0.1299215173822764                    0
  0.1288307053265986                    0   0.1292256641498768                    0   0.1301304676614605                    0    0.130755021946838                    0
   0.145180561028223                    0   0.8461259599047886                  180   0.1302815393763493                    0
  0.1362204971931164                    0   0.1328641595049548                    0   0.1317277318812115                    0   0.1319274439977028                    0
  0.1322688728755784                    0   0.1323279919223715                    0   0.1321499734880131                    0   0.1324270809169213                    0
  0.1304797029101513                    0     0.13030822935314                    0   0.1304829441987946                    0   0.1301516102997096                    0
  0.1304381790876051                    0   0.1302815393763494                    0   0.8440559581158413                  180

!
                   1   0.8574084014152532    179.9999931616026   0.1336556325576486 -3.470581303102811e-06   0.1328479515946654 -3.218372996437726e-06   0.1331054562144274 -3.11981500676875e-06
  0.1336569985164828 -2.911500796921057e-06   0.1334160993203513 -2.841885712861756e-06   0.1330707754814042 -3.172371524852325e-06   0.1331147858442518 -2.820279536905624e-06
  0.1314168645966358 -3.343190342586956e-06   0.1313841567819653 -3.669126537218574e-06   0.1315595426064142 -3.702386261233865e-06   0.1311816116624709 -3.808124233832026e-06
  0.1314733835606254 -3.771317237944528e-06   0.1313046443745686 -3.807040509028527e-06   0.1362204971931094 -4.572656133187553e-06
  0.1336556325576487 -3.470581303102889e-06   0.8559743242644453    179.9999991901492   0.1326401061977402 -5.296526424481967e-07   0.1327399071095676 -4.429751185883281e-07
  0.1328605159230458 -4.100659006354007e-07      0.1330858906111 -1.530731017267835e-07   0.1334990127902817 -2.056599602123678e-07   0.1334739540141094 -4.869763374975711e-08
  0.1318183094054059 -5.3937723076007e-07   0.1316920241247005 -7.227054523513324e-07   0.1319399636873571 -5.753581940946324e-07   0.1317142987621536 -6.49679506579427e-07
  0.1320360544888491 -6.247532828919014e-07   0.1319544939773018 -8.003829296577632e-07   0.1328641595049541 -8.119929286195543e-07
  0.1328479515946655 -3.218372996437774e-06   0.1326401061977401 -5.296526424482512e-07   0.8467683468234467    179.9999988965461   0.1335671985546392 5.934914418603938e-07
  0.1317920718789112 -6.311980971947399e-07   0.1310553010673994 -1.159119569221375e-06   0.1311220763414441 -1.146870881145657e-06   0.1309423715398559 -1.116238576208364e-06
  0.1297684053485856 -1.384982803157937e-06   0.1301203872755334 -1.20028576849798e-06   0.1307549465696292 -1.282471601220244e-06   0.1313106495093521 -5.985449021196551e-07
  0.1327632749710974 -5.841681168150208e-07   0.1363558729831555 2.045993858282056e-06    0.131727731881211 -1.27243941345771e-06
  0.1331054562144273 -3.119815006768694e-06   0.1327399071095678 -4.429751185883229e-07   0.1335671985546393 5.934914418603492e-07   0.8506241019027976    179.9999991212639
  0.1329836149543729 4.099250534420353e-07   0.1316323719194822 -7.780028853372519e-07   0.1316293435851018 -8.782490016048484e-07    0.131407342844007 -9.245902503341693e-07
  0.1304774263621089 -1.411705679941285e-06   0.1308920446047813 -9.258897350741249e-07   0.1320256073526831 -7.699742656250173e-07   0.1336183653269596 5.209714419764348e-07
  0.1329697187668455 -4.524242413593781e-07     0.13164825919989 -7.676117004575747e-07   0.1319274439977023 -9.860034191295217e-07
  0.1336569985164829 -2.911500796921129e-06   0.1328605159230459 -4.100659006354748e-07   0.1317920718789112 -6.311980971947538e-07   0.1329836149543726 4.099250534420787e-07
  0.8514044917843092    179.9999990262338   0.1329518009242659 -3.360953522732922e-07   0.1325501041100643 -3.926756820731426e-07   0.1322258201801316 -5.165729602790475e-07
   0.131762803139234 -1.428307336383468e-06   0.1333794997822948 3.066964317033828e-07   0.1327327675320694 -4.768712239141232e-07   0.1309298307285195 -8.958498505541637e-07
  0.1308024688395731 -9.832688677144943e-07   0.1305073212895371 -1.389423209990586e-06   0.1322688728755782 -8.671075286094165e-07
  0.1334160993203515 -2.841885712861815e-06      0.1330858906111 -1.53073101726876e-07   0.1310553010673992 -1.159119569221365e-06   0.1316323719194825 -7.780028853373515e-07
  0.1329518009242659 -3.360953522732914e-07   0.8496084387294257    179.9999992709249    0.135935981624365 1.972909373736491e-06   0.1342177761132048 7.892425588673361e-07
  0.1332027059092319 5.091872945921165e-07   0.1309108268299381 -8.119449489472259e-07   0.1307119603352374 -9.580719594172048e-07   0.1301049272499615 -1.468843431125493e-06
  0.1301375491101602 -1.216866833687524e-06   0.1299172546821289 -1.736025190735923e-06   0.1323279919223707 -8.870992235205521e-07
  0.1330707754814043 -3.172371524852417e-06   0.1334990127902819 -2.05659960212489e-07   0.1311220763414441 -1.146870881145694e-06   0.1316293435851021 -8.782490016049851e-07
  0.1325501041100647 -3.92675682073204e-07   0.1359359816243651 1.97290937373642e-06   0.8521554151693969    179.9999991966732   0.1352129798334162 9.679746379749107e-07
  0.1339798722061262 2.030377173932143e-07   0.1312275119977179 -7.115791383518265e-07   0.1310024726860565 -8.287285334283254e-07   0.1303220262852804 -1.361099808227697e-06
  0.1303406482135422 -1.130047785598133e-06    0.130112635416355 -1.724112700597833e-06   0.1321499734880123 -1.070748627857818e-06
  0.1331147858442521 -2.820279536905789e-06   0.1334739540141093 -4.869763374979446e-08    0.130942371539856 -1.116238576208409e-06   0.1314073428440074 -9.245902503343169e-07
  0.1322258201801315 -5.165729602789885e-07    0.134217776113205 7.892425588672814e-07   0.1352129798334161 9.679746379749782e-07   0.8459866091576248    179.9999989988386
  0.1315533086819076 -3.579888528854131e-07   0.1307565507647044 -9.084028919667377e-07   0.1305887303692196 -9.141003378893593e-07   0.1300525058568463 -1.394435457679916e-06
  0.1300918837065443 -1.13338380859894e-06   0.1299215173822753 -1.561007141093773e-06   0.1324270809169208 -7.877956603562562e-07
  0.1314168645966362 -3.343190342587098e-06   0.1318183094054061 -5.393772307601442e-07   0.1297684053485851 -1.384982803157798e-06   0.1304774263621096 -1.411705679941503e-06
  0.1317628031392341 -1.428307336383475e-06   0.1332027059092319 5.09187294592171e-07   0.1339798722061261 2.030377173932415e-07   0.1315533086819077 -3.579888528854287e-07
  0.8459563421552703    179.9999980510258   0.1441189752874413 -2.419775147205923e-06   0.1300655021639592 -1.030929730078535e-06   0.1294245755385818 -1.471599389814058e-06
  0.1290571841690724 -1.304814011618501e-06   0.1288307053265986 -1.571246710624299e-06   0.1304797029101509 -1.279272105429601e-06
  0.1313841567819652 -3.669126537218598e-06   0.1316920241247009 -7.227054523514774e-07   0.1301203872755338 -1.200285768498123e-06   0.1308920446047811 -9.258897350741192e-07
  0.1333794997822944 3.066964317034995e-07   0.1309108268299376 -8.119449489471027e-07   0.1312275119977182 -7.115791383519292e-07   0.1307565507647047 -9.08402891966833e-07
  0.1441189752874412 -2.419775147205945e-06   0.8468958099376664    179.9999981025368   0.1334086480533647 -3.467241962296304e-07   0.1299095424137964 -1.05985724671105e-06
  0.1295617474081839 -1.073398986311974e-06   0.1292256641498753 -1.484280539434797e-06   0.1303082293531397 -1.408293736574572e-06
  0.1315595426064146 -3.702386261233975e-06   0.1319399636873569 -5.753581940945782e-07   0.1307549465696289 -1.282471601220111e-06    0.132025607352683 -7.699742656250065e-07
  0.1327327675320694 -4.768712239140461e-07   0.1307119603352375 -9.580719594172103e-07   0.1310024726860561 -8.287285334281719e-07   0.1305887303692197 -9.141003378893572e-07
  0.1300655021639593 -1.030929730078519e-06   0.1334086480533642 -3.467241962294367e-07   0.8497304430967005    179.9999980034221   0.1438753097987057 -2.524742561645975e-06
  0.1304515789715204 -9.476798114688846e-07   0.1301304676614617 -1.414012600666518e-06   0.1304829441987944 -1.305048031543428e-06
  0.1311816116624707 -3.808124233831994e-06   0.1317142987621537 -6.496795065794988e-07   0.1313106495093529 -5.985449021198836e-07   0.1336183653269594 5.209714419764315e-07
  0.1309298307285194 -8.958498505541285e-07   0.1301049272499615 -1.468843431125495e-06   0.1303220262852802 -1.361099808227636e-06   0.1300525058568469 -1.394435457680054e-06
  0.1294245755385815 -1.471599389813996e-06    0.129909542413797 -1.059857246711163e-06   0.1438753097987051 -2.524742561645951e-06   0.8470522750745991    179.9999979587398
  0.1337019985851972 -1.34142070440961e-07   0.1307550219468361 -9.83603001797595e-07   0.1301516102997091 -1.554515866970827e-06
  0.1314733835606252 -3.771317237944527e-06   0.1320360544888492 -6.247532828919535e-07   0.1327632749710972 -5.841681168149557e-07   0.1329697187668461 -4.52424241359576e-07
   0.130802468839573 -9.832688677144659e-07     0.13013754911016 -1.216866833687436e-06   0.1303406482135415 -1.130047785597986e-06   0.1300918837065441 -1.133383808598881e-06
   0.129057184169074 -1.304814011618932e-06   0.1295617474081826 -1.073398986311569e-06   0.1304515789715223 -9.476798114694638e-07   0.1337019985851955 -1.341420704404679e-07
  0.8490062320172634    179.9999980423669   0.1451805610282199 -2.172870340648394e-06   0.1304381790876049 -1.357526929024602e-06
  0.1313046443745692 -3.807040509028637e-06   0.1319544939773019 -8.00382929657759e-07    0.136355872983155 2.04599385828221e-06   0.1316482591998897 -7.676117004575184e-07
  0.1305073212895377 -1.389423209990672e-06    0.129917254682129 -1.736025190735911e-06   0.1301126354163556 -1.724112700597946e-06   0.1299215173822755 -1.561007141093779e-06
   0.128830705326598 -1.571246710624133e-06   0.1292256641498762 -1.484280539435019e-06   0.1301304676614597 -1.41401260066599e-06   0.1307550219468374 -9.836030017979321e-07
  0.1451805610282187 -2.1728703406481e-06   0.8461259599047817    179.9999977232591   0.1302815393763489 -1.628258114295878e-06
  0.1362204971931096 -4.572656133187669e-06   0.1328641595049543 -8.119929286196539e-07   0.1317277318812107 -1.272439413457645e-06   0.1319274439977024 -9.860034191295679e-07
   0.132268872875578 -8.671075286093318e-07   0.1323279919223709 -8.870992235206271e-07   0.1321499734880125 -1.070748627857847e-06   0.1324270809169209 -7.877956603562862e-07
  0.1304797029101508 -1.279272105429616e-06   0.1303082293531396 -1.408293736574545e-06   0.1304829441987944 -1.305048031543438e-06   0.1301516102997091 -1.554515866970839e-06
  0.1304381790876049 -1.357526929024604e-06    0.130281539376349 -1.628258114295918e-06   0.8440559581158348    179.9999975654375

!
             1.16591   0.8574084014152403    179.9999920270442   0.1336556325576473 -4.046385447100279e-06   0.1328479515946643 -3.752333260276433e-06   0.1331054562144264 -3.637423514541484e-06
  0.1336569985164818 -3.394547894137966e-06   0.1334160993203503 -3.313382971482385e-06   0.1330707754814032 -3.698699684540293e-06   0.1331147858442509 -3.288192114873377e-06
  0.1314168645966348 -3.897859052325293e-06   0.1313841567819642 -4.277871321008235e-06   0.1315595426064131 -4.316649165834899e-06   0.1311816116624699 -4.439930125466815e-06
  0.1314733835606244 -4.39701648089163e-06   0.1313046443745676 -4.43866659988118e-06    0.136220497193107 -5.331305512244063e-06
  0.1336556325576475 -4.046385447100368e-06    0.855974324264444    179.9999990557868   0.1326401061977399 -6.175273123567216e-07   0.1327399071095675 -5.164691205132706e-07
  0.1328605159230457 -4.78099934209775e-07   0.1330858906110999 -1.784694600342598e-07   0.1334990127902816 -2.397810042111605e-07   0.1334739540141093 -5.677705816514859e-08
  0.1318183094054057 -6.288653071154208e-07   0.1316920241247003 -8.42609513950872e-07   0.1319399636873569 -6.708158720768158e-07   0.1317142987621534 -7.574678335159544e-07
  0.1320360544888489 -7.28406100056436e-07   0.1319544939773016 -9.33174461517218e-07    0.132864159504954 -9.467106754067739e-07
  0.1328479515946644 -3.752333260276488e-06   0.1326401061977399 -6.175273123567851e-07   0.8467683468234459    179.9999987134721   0.1335671985546394 6.919576069794172e-07
  0.1317920718789111 -7.359201735002792e-07   0.1310553010673991 -1.35142909695081e-06   0.1311220763414438 -1.337148229036455e-06   0.1309423715398556 -1.301433718387017e-06
  0.1297684053485853 -1.614765300029785e-06   0.1301203872755331 -1.399425180349419e-06   0.1307549465696289 -1.495246464578597e-06    0.131310649509352 -6.97849486830298e-07
  0.1327632749710972 -6.810874490757436e-07   0.1363558729831562 2.385444699309458e-06   0.1317277318812107 -1.483549836544405e-06
  0.1331054562144263 -3.637423514541419e-06   0.1327399071095676 -5.164691205132646e-07   0.1335671985546395 6.919576069793653e-07   0.8506241019027969    179.9999989754728
  0.1329836149543731 4.779357190585558e-07    0.131632371919482 -9.070813440435039e-07   0.1316293435851016 -1.023959293461052e-06   0.1314073428440068 -1.077989018767047e-06
  0.1304774263621085 -1.645921769300234e-06   0.1308920446047812 -1.079504101020225e-06    0.132025607352683 -8.97720696034815e-07   0.1336183653269598 6.07405813914691e-07
  0.1329697187668454 -5.274859472432821e-07   0.1316482591998899 -8.94966157680439e-07   0.1319274439977022 -1.149591246397254e-06
  0.1336569985164819 -3.394547894138049e-06   0.1328605159230457 -4.780999342098616e-07   0.1317920718789111 -7.359201735002957e-07   0.1329836149543728 4.779357190586064e-07
  0.8514044917843084    179.9999988646763   0.1329518009242658 -3.918569321689062e-07   0.1325501041100643 -4.578245044858732e-07   0.1322258201801315 -6.022775801189032e-07
  0.1317628031392336 -1.665277806562705e-06   0.1333794997822949 3.575804366872626e-07   0.1327327675320694 -5.55988928673696e-07   0.1309298307285194 -1.044480299259563e-06
  0.1308024688395729 -1.146403005556963e-06   0.1305073212895368 -1.619942414760045e-06    0.132268872875578 -1.010969338680955e-06
  0.1334160993203505 -3.313382971482454e-06      0.1330858906111 -1.784694600343678e-07   0.1310553010673989 -1.351429096950798e-06   0.1316323719194823 -9.070813440436199e-07
  0.1329518009242657 -3.918569321689051e-07   0.8496084387294253    179.9999991499641   0.1359359816243653 2.30023476793305e-06    0.134217776113205 9.20185791808959e-07
  0.1332027059092322 5.936665586378288e-07    0.130910826829938 -9.466547354270174e-07   0.1307119603352372 -1.117025678204065e-06   0.1301049272499611 -1.712539244783423e-06
    0.13013754911016 -1.418757210064567e-06   0.1299172546821286 -2.024049130130815e-06   0.1323279919223705 -1.034277855694789e-06
  0.1330707754814033 -3.698699684540401e-06   0.1334990127902818 -2.397810042113017e-07   0.1311220763414438 -1.337148229036498e-06   0.1316293435851019 -1.023959293461211e-06
  0.1325501041100646 -4.578245044859451e-07   0.1359359816243654 2.300234767932967e-06   0.8521554151693964    179.9999990633933   0.1352129798334164 1.128571310161278e-06
  0.1339798722061263 2.367237050858965e-07   0.1312275119977177 -8.296372331957342e-07   0.1310024726860564 -9.66222884409379e-07   0.1303220262852801 -1.586919877410659e-06
   0.130340648213542 -1.317534013706669e-06   0.1301126354163546 -2.01016023875391e-06    0.132149973488012 -1.248396532705646e-06
  0.1331147858442511 -3.288192114873569e-06   0.1334739540141092 -5.677705816519221e-08   0.1309423715398557 -1.30143371838707e-06   0.1314073428440072 -1.077989018767219e-06
  0.1322258201801314 -6.022775801188346e-07   0.1342177761132053 9.20185791808895e-07   0.1352129798334163 1.128571310161357e-06   0.8459866091576242    179.9999988327359
  0.1315533086819076 -4.17382783467601e-07   0.1307565507647042 -1.059116015772878e-06   0.1305887303692194 -1.065758724948535e-06    0.130052505856846 -1.625786244463493e-06
  0.1300918837065441 -1.32142351628354e-06    0.129921517382275 -1.819993835872552e-06   0.1324270809169207 -9.184988383659197e-07
  0.1314168645966352 -3.897859052325459e-06   0.1318183094054059 -6.288653071155071e-07   0.1297684053485847 -1.614765300029623e-06   0.1304774263621092 -1.645921769300488e-06
  0.1317628031392336 -1.665277806562713e-06   0.1332027059092322 5.936665586378927e-07   0.1339798722061262 2.367237050859283e-07   0.1315533086819077 -4.173827834676191e-07
   0.845956342155268    179.9999977276715   0.1441189752874399 -2.82124004187849e-06   0.1300655021639589 -1.20197128159581e-06   0.1294245755385814 -1.715752444578021e-06
  0.1290571841690723 -1.521295704286078e-06   0.1288307053265983 -1.831932252383918e-06   0.1304797029101507 -1.491516140441378e-06
  0.1313841567819641 -4.277871321008266e-06   0.1316920241247006 -8.426095139510409e-07   0.1301203872755335 -1.399425180349587e-06   0.1308920446047809 -1.079504101020219e-06
  0.1333794997822945 3.575804366873985e-07   0.1309108268299375 -9.466547354268743e-07    0.131227511997718 -8.29637233195854e-07   0.1307565507647045 -1.059116015772989e-06
  0.1441189752874397 -2.821240041878516e-06   0.8468958099376644    179.9999977877287   0.1334086480533647 -4.04249207626073e-07   0.1299095424137963 -1.235698162512828e-06
  0.1295617474081837 -1.251486612130965e-06    0.129225664149875 -1.730537523732369e-06   0.1303082293531396 -1.64194375040962e-06
  0.1315595426064135 -4.316649165835028e-06   0.1319399636873567 -6.708158720767523e-07   0.1307549465696286 -1.495246464578442e-06   0.1320256073526829 -8.977206960348024e-07
  0.1327327675320693 -5.559889286736059e-07   0.1307119603352374 -1.117025678204072e-06   0.1310024726860559 -9.662228844091999e-07   0.1305887303692195 -1.065758724948533e-06
   0.130065502163959 -1.201971281595791e-06   0.1334086480533642 -4.042492076258471e-07    0.849730443096698    179.9999976721699   0.1438753097987042 -2.943622600048291e-06
  0.1304515789715202 -1.104909368989638e-06   0.1301304676614614 -1.648611431243022e-06   0.1304829441987943 -1.521568550456773e-06
  0.1311816116624696 -4.43993012546678e-06   0.1317142987621535 -7.574678335160379e-07   0.1313106495093528 -6.978494868305647e-07   0.1336183653269596 6.074058139146875e-07
  0.1309298307285192 -1.044480299259523e-06   0.1301049272499611 -1.712539244783426e-06   0.1303220262852798 -1.586919877410588e-06   0.1300525058568465 -1.625786244463654e-06
  0.1294245755385811 -1.715752444577949e-06   0.1299095424137968 -1.235698162512961e-06   0.1438753097987037 -2.943622600048262e-06   0.8470522750745962    179.9999976200743
  0.1337019985851972 -1.563975813478096e-07   0.1307550219468358 -1.146792575825771e-06   0.1301516102997089 -1.81242559445991e-06
  0.1314733835606242 -4.397016480891628e-06    0.132036054488849 -7.284061000564967e-07    0.132763274971097 -6.810874490756678e-07    0.132969718766846 -5.274859472435128e-07
  0.1308024688395728 -1.14640300555693e-06   0.1301375491101597 -1.418757210064465e-06   0.1303406482135413 -1.317534013706498e-06   0.1300918837065439 -1.32142351628347e-06
  0.1290571841690739 -1.521295704286581e-06   0.1295617474081825 -1.251486612130493e-06   0.1304515789715221 -1.104909368990314e-06   0.1337019985851955 -1.563975813472348e-07
  0.8490062320172612     179.999997717576   0.1451805610282184 -2.533371258864983e-06   0.1304381790876047 -1.582754221819055e-06
  0.1313046443745682 -4.438666599881309e-06   0.1319544939773017 -9.331744615172134e-07   0.1363558729831558 2.385444699309637e-06   0.1316482591998896 -8.949661576803735e-07
  0.1305073212895374 -1.619942414760144e-06   0.1299172546821286 -2.024049130130801e-06   0.1301126354163552 -2.010160238754043e-06   0.1299215173822752 -1.819993835872558e-06
  0.1288307053265978 -1.831932252383724e-06    0.129225664149876 -1.730537523732628e-06   0.1301304676614595 -1.648611431242405e-06   0.1307550219468371 -1.146792575826164e-06