! Touchstone data
! Created: 22-Apr-2025 by IdEM 2023 (2023.0.0)
!
!*********************************************************
! COMMENTS
!*********************************************************
!
!  Touchstone file exported from Ansys Full-Wave Spice
!  Project: 0000_PSI_S-parameter_Sweep
!   Design: unknown
!  Creation time: Tue Apr 22 10:16:35 2025
!  Notes: ! Touchstone(R) file created by SIwave 2025 R1
!       : ! Touchstone(R) file created on Tue Apr 22 10:16:35 2025
! 
!  Modal data exported
!  Port[1] = PORT_1_L34_SOC_VSOC_Group_U40_GND_Group
!  Port[2] = PORT_2_U1_SOC_VSOC_Group_U1_GRP_1_1_GND
!  Port[3] = SOC_VSOC_C467_1
!  Port[4] = SOC_VSOC_C468_1
!  Port[5] = SOC_VSOC_C469_1
!  Port[6] = SOC_VSOC_C470_1
!  Port[7] = SOC_VSOC_C471_1
!  Port[8] = SOC_VSOC_C473_1
!  Port[9] = SOC_VSOC_C560_1
!  Port[10] = SOC_VSOC_C560_3
!  Port[11] = SOC_VSOC_C561_1
!  Port[12] = SOC_VSOC_C561_3
!  Port[13] = SOC_VSOC_C648_1
!
!*********************************************************
!
!
!---------------------------
! Options Used in IdEM Flow
!---------------------------
!
! Fitting Options !
!
! Bandwidth: 1.0000e+09 Hz
! Order: [2 2 6] 
! SplitType: none 
! tol: 1.0000e-03 
! DC Point: enforced 
!
!---------------------------
!
! Passivity Options !
!
! Alg: SOC+HAM 
!    Max SOC it: 200 
!    Max HAM it: 50 
! Freq sampling: adaptive
! DC Point: enforced
! Optimization method: Model based
!
!---------------------------
!

# Hz S MA R 0.1

!
                   0   0.8348777989402077                  180    0.154482590914208                    0   0.1531308382150119                    0   0.1526266799617273                    0
  0.1522146775036798                    0   0.1548629638433119                    0   0.1533236401363922                    0   0.1547303468692141                    0
  0.1501584172606573                    0   0.1501600192837968                    0   0.1509996796797809                    0   0.1515827516577806                    0
  0.1566051925044236                    0
  0.1544825909142079                    0   0.8334996283977407                  180   0.1533841405737562                    0   0.1526412863628542                    0
  0.1524361307545383                    0    0.153466746714695                    0   0.1530726774672518                    0   0.1537897105963718                    0
  0.1513644266673838                    0   0.1511958203641162                    0   0.1518481669822726                    0   0.1519466288839167                    0
  0.1538713010061532                    0
  0.1531308382150123                    0   0.1533841405737559                    0   0.8315656887864371                  180   0.1520835685443165                    0
  0.1512246620521932                    0   0.1536890477946801                    0    0.155490195261135                    0   0.1550414124202415                    0
  0.1497076424377689                    0   0.1498069216872627                    0   0.1510228936442748                    0   0.1538398238330392                    0
  0.1531445412125337                    0
  0.1526266799617272                    0   0.1526412863628543                    0   0.1520835685443164                    0   0.8285360411168043                  180
  0.1534484026094426                    0   0.1521185907108942                    0   0.1526702982336895                    0   0.1518382815649714                    0
  0.1505936837766729                    0   0.1517241477028275                    0   0.1536838874248473                    0   0.1519093156432305                    0
  0.1531978974711094                    0
  0.1522146775036802                    0   0.1524361307545383                    0   0.1512246620521934                    0   0.1534484026094426                    0
  0.8226606676692376                  180   0.1511573843215271                    0   0.1514498573750372                    0   0.1510380595204401                    0
  0.1545026026353757                    0   0.1510559003161026                    0   0.1511013946989892                    0   0.1503714152540097                    0
  0.1526601795176796                    0
  0.1548629638433122                    0   0.1534667467146952                    0   0.1536890477946807                    0    0.152118590710894                    0
  0.1511573843215269                    0   0.8314001060020576                  180   0.1551348865090549                    0   0.1566554335551794                    0
  0.1493366809195617                    0   0.1493463177763993                    0   0.1504855200181477                    0   0.1511290223910999                    0
  0.1540175103372831                    0
   0.153323640136392                    0   0.1530726774672518                    0   0.1554901952611348                    0   0.1526702982336893                    0
  0.1514498573750371                    0   0.1551348865090552                    0   0.8319201113599464                  180   0.1537541574806737                    0
  0.1495681364510339                    0   0.1496671617883822                    0   0.1508472075494067                    0   0.1532234219661391                    0
  0.1537184700315263                    0
   0.154730346869214                    0   0.1537897105963723                    0   0.1550414124202417                    0   0.1518382815649711                    0
  0.1510380595204401                    0   0.1566554335551801                    0   0.1537541574806738                    0   0.8312282162419852                  180
  0.1494360518602606                    0   0.1494421519453162                    0   0.1505943140815802                    0   0.1512688041696791                    0
   0.153639491067834                    0
  0.1501584172606574                    0   0.1513644266673838                    0   0.1497076424377685                    0   0.1505936837766729                    0
  0.1545026026353756                    0   0.1493366809195618                    0   0.1495681364510344                    0   0.1494360518602607                    0
  0.8226766843040108                  180   0.1683587706249997                    0   0.1500376094682722                    0   0.1492370756983242                    0
  0.1503755853934763                    0
  0.1501600192837967                    0   0.1511958203641165                    0   0.1498069216872626                    0   0.1517241477028274                    0
  0.1510559003161024                    0   0.1493463177763996                    0   0.1496671617883821                    0   0.1494421519453163                    0
  0.1683587706249997                    0    0.823353829017317                  180   0.1528848651304706                    0   0.1493204112529296                    0
  0.1503913400344898                    0
   0.150999679679781                    0   0.1518481669822728                    0    0.151022893644275                    0   0.1536838874248477                    0
  0.1511013946989889                    0   0.1504855200181473                    0   0.1508472075494069                    0   0.1505943140815804                    0
  0.1500376094682721                    0   0.1528848651304708                    0   0.8289898811282262                  180   0.1642784908603018                    0
  0.1512058504796585                    0
  0.1515827516577804                    0   0.1519466288839167                    0   0.1538398238330387                    0   0.1519093156432299                    0
  0.1503714152540092                    0   0.1511290223910999                    0   0.1532234219661391                    0   0.1512688041696784                    0
  0.1492370756983242                    0   0.1493204112529292                    0   0.1642784908603016                    0   0.8298470120735306                  180
  0.1517398493528576                    0
  0.1566051925044241                    0   0.1538713010061532                    0   0.1531445412125335                    0   0.1531978974711092                    0
  0.1526601795176792                    0   0.1540175103372835                    0   0.1537184700315267                    0   0.1536394910678336                    0
  0.1503755853934761                    0   0.1503913400344899                    0   0.1512058504796586                    0    0.151739849352858                    0
  0.8345672095192471                  180

!
                   1   0.8348777989401958    179.9999943678554   0.1544825909142072 -1.919951655311437e-06   0.1531308382150111 -2.230304112254563e-06    0.152626679961726 -2.842456145492268e-06
  0.1522146775036783 -3.021659393853086e-06   0.1548629638433112 -1.786896039038045e-06   0.1533236401363913 -2.261319310952492e-06   0.1547303468692134 -1.744636662397287e-06
  0.1501584172606558 -3.41551454657755e-06   0.1501600192837954 -3.305859425527175e-06   0.1509996796797793 -3.41702120182348e-06   0.1515827516577791 -3.129880010822405e-06
  0.1566051925044223 -2.008610121516323e-06
   0.154482590914207 -1.919951655311402e-06   0.8334996283977373    179.9999989337619   0.1533841405737564 1.636672484896087e-07    0.152641286362854 -4.101465191175998e-07
   0.152436130754538 -3.590318880670538e-07   0.1534667467146951 5.216644813673161e-09   0.1530726774672519 -3.774952832959451e-08    0.153789710596372 1.937469868457013e-07
  0.1513644266673837 -3.839921342467451e-07    0.151195820364116 -4.696834188110248e-07   0.1518481669822723 -6.418685276739884e-07   0.1519466288839161 -8.019525935165424e-07
   0.153871301006153 -3.71717247769936e-07
  0.1531308382150114 -2.230304112254617e-06    0.153384140573756 1.636672484896961e-07   0.8315656887864359    179.9999992249775   0.1520835685443164 -3.862533438776727e-07
  0.1512246620521929 -6.528955367908377e-07   0.1536890477946805 3.305960611079383e-07   0.1554901952611356 1.365653263443913e-06   0.1550414124202417 4.613281663361196e-07
   0.149707642437768 -1.349138059458137e-06   0.1498069216872626 -7.452505588624526e-07   0.1510228936442745 -8.588673804647718e-07   0.1538398238330392 -2.45230798481472e-07
  0.1531445412125337 -3.071467800242302e-07
  0.1526266799617259 -2.84245614549224e-06    0.152641286362854 -4.101465191176067e-07   0.1520835685443164 -3.862533438776724e-07   0.8285360411168022    179.9999989852656
  0.1534484026094425 1.934332027430615e-07    0.152118590710894 -5.066561885825808e-07   0.1526702982336895 -1.914775856172439e-07   0.1518382815649712 -5.898933805002702e-07
  0.1505936837766726 -8.033308501745831e-07   0.1517241477028276 -3.076473847493426e-07   0.1536838874248478 7.438303095684848e-07     0.15190931564323 -8.901094098736572e-07
  0.1531978974711098 2.769846493247599e-07
  0.1522146775036788 -3.021659393853183e-06    0.152436130754538 -3.590318880670544e-07   0.1512246620521931 -6.528955367908852e-07   0.1534484026094425 1.934332027430796e-07
  0.8226606676692355    179.9999988466826   0.1511573843215266 -8.521518991421468e-07   0.1514498573750368 -6.044089042573192e-07   0.1510380595204397 -8.157073207302553e-07
  0.1545026026353777 1.693899193009568e-06   0.1510559003161031 1.230268747053902e-07    0.151101394698989 -5.775062395558572e-07   0.1503714152540086 -1.313074540367278e-06
  0.1526601795176795 -2.690480557962981e-07
  0.1548629638433114 -1.786896039038082e-06   0.1534667467146953 5.216644813626753e-09   0.1536890477946812 3.305960611078165e-07   0.1521185907108938 -5.066561885825451e-07
  0.1511573843215264 -8.521518991420984e-07   0.8314001060020564    179.9999991604892   0.1551348865090553 5.778900790526162e-07   0.1566554335551805 1.918607517506862e-06
  0.1493366809195611 -1.275884921669123e-06   0.1493463177763988 -1.175747465352142e-06   0.1504855200181471 -1.164825523380507e-06    0.151129022391099 -1.172983055218437e-06
  0.1540175103372835 2.618026059032723e-07
   0.153323640136391 -2.261319310952443e-06   0.1530726774672519 -3.774952832956751e-08   0.1554901952611352 1.365653263443978e-06   0.1526702982336892 -1.914775856171869e-07
  0.1514498573750368 -6.044089042573024e-07   0.1551348865090556 5.778900790525665e-07   0.8319201113599456    179.9999992756785   0.1537541574806742 3.231247434945209e-07
  0.1495681364510331 -1.369896702913424e-06    0.149667161788382 -8.870445254586835e-07   0.1508472075494064 -9.140002645695917e-07   0.1532234219661391 -2.859200195729827e-07
  0.1537184700315265 8.949560549676061e-08
  0.1547303468692134 -1.744636662397278e-06   0.1537897105963724 1.937469868455979e-07   0.1550414124202419 4.61328166336099e-07   0.1518382815649709 -5.898933805002086e-07
  0.1510380595204397 -8.157073207302458e-07   0.1566554335551812 1.918607517506678e-06   0.1537541574806742 3.231247434945083e-07   0.8312282162419835     179.999999190147
  0.1494360518602601 -1.19460070053945e-06   0.1494421519453158 -1.071766352081101e-06   0.1505943140815798 -1.096812474208116e-06   0.1512688041696785 -9.070155426544597e-07
  0.1536394910678342 -1.15838959128578e-07
  0.1501584172606558 -3.415514546577561e-06   0.1513644266673836 -3.839921342467408e-07   0.1497076424377675 -1.349138059458052e-06   0.1505936837766726 -8.033308501745716e-07
  0.1545026026353776 1.693899193009581e-06   0.1493366809195612 -1.275884921669142e-06   0.1495681364510336 -1.369896702913533e-06   0.1494360518602601 -1.194600700539436e-06
  0.8226766843040034     179.999997694124   0.1683587706249962 -1.533220702541825e-06   0.1500376094682719 -9.438986596635773e-07   0.1492370756983239 -1.01388134926949e-06
  0.1503755853934759 -1.151079473347323e-06
  0.1501600192837952 -3.305859425527155e-06   0.1511958203641163 -4.696834188110905e-07   0.1498069216872625 -7.452505588624061e-07   0.1517241477028275 -3.076473847493129e-07
   0.151055900316103 1.230268747054199e-07   0.1493463177763991 -1.175747465352215e-06   0.1496671617883819 -8.870445254586475e-07   0.1494421519453158 -1.071766352081093e-06
  0.1683587706249963 -1.533220702541813e-06   0.8233538290173109    179.9999978341683   0.1528848651304704 -6.215592174584625e-07   0.1493204112529294 -9.174227782634258e-07
  0.1503913400344896 -9.872914505638935e-07
  0.1509996796797794 -3.417021201823512e-06   0.1518481669822725 -6.418685276740242e-07   0.1510228936442747 -8.588673804648065e-07   0.1536838874248481 7.438303095684076e-07
  0.1511013946989888 -5.775062395558167e-07   0.1504855200181468 -1.164825523380446e-06   0.1508472075494066 -9.140002645696313e-07   0.1505943140815799 -1.096812474208148e-06
  0.1500376094682717 -9.438986596635542e-07   0.1528848651304706 -6.215592174585027e-07   0.8289898811282185    179.9999976895515   0.1642784908602984 -2.187964583978141e-06
   0.151205850479658 -1.058931017845101e-06
  0.1515827516577789 -3.129880010822367e-06   0.1519466288839161 -8.019525935165375e-07   0.1538398238330386 -2.452307984813623e-07   0.1519093156432293 -8.901094098735368e-07
  0.1503714152540081 -1.313074540367157e-06    0.151129022391099 -1.172983055218426e-06   0.1532234219661391 -2.859200195729698e-07   0.1512688041696778 -9.070155426543241e-07
  0.1492370756983239 -1.013881349269484e-06   0.1493204112529289 -9.174227782633385e-07   0.1642784908602981 -2.187964583978107e-06   0.8298470120735207    179.9999974865572
  0.1517398493528572 -9.317250395243851e-07
  0.1566051925044228 -2.008610121516421e-06   0.1538713010061531 -3.717172477699488e-07   0.1531445412125335 -3.071467800241858e-07   0.1531978974711097 2.769846493248001e-07
  0.1526601795176792 -2.690480557962239e-07   0.1540175103372839 2.61802605903216e-07   0.1537184700315269 8.949560549667842e-08   0.1536394910678337 -1.158389591284897e-07
  0.1503755853934757 -1.151079473347308e-06   0.1503913400344896 -9.872914505639119e-07   0.1512058504796582 -1.058931017845125e-06   0.1517398493528576 -9.317250395244552e-07
  0.8345672095192453    179.9999988288198

!
             1.16591   0.8348777989401912    179.9999934334262   0.1544825909142069 -2.238490834444096e-06   0.1531308382150108 -2.600333867518653e-06   0.1526266799617255 -3.314048044590793e-06
  0.1522146775036778 -3.522982903887142e-06   0.1548629638433109 -2.083359960874797e-06    0.153323640136391 -2.636494797832551e-06   0.1547303468692132 -2.034089331055574e-06
  0.1501584172606552 -3.982182565000113e-06   0.1501600192837948 -3.854334562816279e-06   0.1509996796797787 -3.983939189417893e-06   0.1515827516577785 -3.649158403417836e-06
  0.1566051925044218 -2.341858626776995e-06
  0.1544825909142067 -2.238490834444057e-06   0.8334996283977361    179.9999987568623   0.1533841405737565 1.908212816865062e-07   0.1526412863628539 -4.781939281043841e-07
  0.1524361307545379 -4.185988686162394e-07   0.1534667467146951 6.082138354703014e-09    0.153072677467252 -4.401255257476581e-08    0.153789710596372 2.258915494332624e-07
  0.1513644266673836 -4.477002692396132e-07   0.1511958203641159 -5.476085948259447e-07   0.1518481669822722 -7.483609351003565e-07   0.1519466288839158 -9.350045483068142e-07
   0.153871301006153 -4.33388856347434e-07
  0.1531308382150111 -2.600333867518715e-06   0.1533841405737561 1.90821281686608e-07    0.831565688786435    179.9999990963935   0.1520835685443164 -4.503366361604122e-07
  0.1512246620521928 -7.612174352997818e-07   0.1536890477946807 3.854452536063229e-07   0.1554901952611356 1.59222879638186e-06   0.1550414124202418 5.378671224129301e-07
  0.1497076424377677 -1.572973554902767e-06   0.1498069216872626 -8.688950790833129e-07   0.1510228936442743 -1.001362067557655e-06   0.1538398238330391 -2.859170402575301e-07
  0.1531445412125337 -3.581055022980491e-07
  0.1526266799617254 -3.314048044590761e-06    0.152641286362854 -4.781939281043922e-07   0.1520835685443163 -4.503366361604117e-07   0.8285360411168015     179.999998816911
  0.1534484026094424 2.255257054101734e-07   0.1521185907108939 -5.907155168302997e-07   0.1526702982336894 -2.232456318469946e-07   0.1518382815649711 -6.877625912590544e-07
  0.1505936837766725 -9.366114715270217e-07   0.1517241477028277 -3.586891623531151e-07    0.153683887424848 8.672391962289598e-07   0.1519093156432298 -1.037787462065752e-06
  0.1531978974711099 3.22939172494199e-07
  0.1522146775036782 -3.522982903887255e-06    0.152436130754538 -4.185988686162397e-07    0.151224662052193 -7.612174352998368e-07   0.1534484026094423 2.255257054101944e-07
  0.8226606676692347    179.9999986553357   0.1511573843215264 -9.935324207287806e-07   0.1514498573750367 -7.046863855626245e-07   0.1510380595204396 -9.51041322312579e-07
  0.1545026026353783 1.97493400812163e-06   0.1510559003161034 1.43438263487717e-07    0.151101394698989 -6.733202997605528e-07   0.1503714152540083 -1.530926737359532e-06
  0.1526601795176795 -3.13685818733458e-07
  0.1548629638433112 -2.083359960874838e-06   0.1534667467146953 6.082138354649116e-09   0.1536890477946813 3.854452536061806e-07   0.1521185907108937 -5.907155168302581e-07
  0.1511573843215262 -9.93532420728724e-07   0.8314001060020557    179.9999990212059   0.1551348865090555 6.737678220682055e-07   0.1566554335551808 2.236923690736343e-06
  0.1493366809195609 -1.487566989023203e-06   0.1493463177763986 -1.370815727328678e-06    0.150485520018147 -1.358081725964527e-06   0.1511290223910987 -1.367592673909655e-06
  0.1540175103372837 3.052382762486567e-07
  0.1533236401363907 -2.636494797832495e-06   0.1530726774672519 -4.401255257473456e-08   0.1554901952611353 1.592228796381937e-06   0.1526702982336892 -2.232456318469282e-07
  0.1514498573750366 -7.046863855626051e-07   0.1551348865090557 6.737678220681478e-07   0.8319201113599447    179.9999991555063   0.1537541574806743 3.767343696876644e-07
  0.1495681364510328 -1.597176264893727e-06   0.1496671617883819 -1.034214082677518e-06   0.1508472075494062 -1.065642048464306e-06   0.1532234219661391 -3.333570100203347e-07
  0.1537184700315266 1.043438214047101e-07
  0.1547303468692131 -2.034089331055563e-06   0.1537897105963724 2.25891549433142e-07   0.1550414124202419 5.378671224129061e-07   0.1518382815649708 -6.877625912589826e-07
  0.1510380595204395 -9.510413223125676e-07   0.1566554335551816 2.236923690736127e-06   0.1537541574806743 3.767343696876498e-07   0.8312282162419828    179.9999990557842
  0.1494360518602599 -1.392796902765908e-06   0.1494421519453157 -1.249583107554843e-06   0.1505943140815796 -1.278784631803946e-06   0.1512688041696783 -1.057498491336211e-06
  0.1536394910678342 -1.350578008376107e-07
  0.1501584172606552 -3.982182565000127e-06   0.1513644266673836 -4.477002692396082e-07   0.1497076424377672 -1.572973554902667e-06   0.1505936837766725 -9.366114715270082e-07
  0.1545026026353783 1.974934008121644e-06    0.149336680919561 -1.487566989023226e-06   0.1495681364510333 -1.597176264893854e-06   0.1494360518602599 -1.392796902765893e-06
   0.822676684304001    179.9999973115561    0.168358770624995 -1.787597349300288e-06   0.1500376094682717 -1.100500886288336e-06   0.1492370756983238 -1.182094403926769e-06
  0.1503755853934758 -1.342055068770346e-06
  0.1501600192837947 -3.854334562816255e-06   0.1511958203641162 -5.476085948260211e-07   0.1498069216872624 -8.688950790832584e-07   0.1517241477028275 -3.586891623530804e-07
  0.1510559003161032 1.434382634877516e-07   0.1493463177763989 -1.370815727328763e-06   0.1496671617883818 -1.034214082677476e-06   0.1494421519453156 -1.249583107554834e-06
   0.168358770624995 -1.787597349300276e-06   0.8233538290173085    179.9999974748352   0.1528848651304703 -7.246821072269803e-07   0.1493204112529292 -1.069632391405089e-06
  0.1503913400344895 -1.151092975126932e-06
  0.1509996796797788 -3.983939189417929e-06   0.1518481669822724 -7.483609351003985e-07   0.1510228936442745 -1.001362067557695e-06   0.1536838874248483 8.672391962288698e-07
  0.1511013946989887 -6.733202997605057e-07   0.1504855200181467 -1.358081725964455e-06   0.1508472075494065 -1.065642048464352e-06   0.1505943140815798 -1.278784631803984e-06
  0.1500376094682716 -1.100500886288309e-06   0.1528848651304705 -7.246821072270271e-07   0.8289898811282158    179.9999973062251   0.1642784908602971 -2.550969788105705e-06
  0.1512058504796579 -1.234618263015746e-06
  0.1515827516577783 -3.649158403417793e-06   0.1519466288839158 -9.350045483068085e-07   0.1538398238330386 -2.859170402574021e-07   0.1519093156432292 -1.037787462065611e-06
  0.1503714152540078 -1.530926737359391e-06   0.1511290223910987 -1.367592673909644e-06   0.1532234219661391 -3.333570100203198e-07   0.1512688041696776 -1.057498491336054e-06
  0.1492370756983238 -1.182094403926761e-06   0.1493204112529288 -1.069632391404987e-06   0.1642784908602969 -2.550969788105665e-06   0.8298470120735175    179.9999970695519
   0.151739849352857 -1.08630754083184e-06
  0.1566051925044223 -2.341858626777109e-06   0.1538713010061531 -4.333888563474491e-07   0.1531445412125335 -3.581055022979975e-07   0.1531978974711098 3.22939172494246e-07
  0.1526601795176792 -3.136858187333713e-07    0.154017510337284 3.052382762485907e-07    0.153718470031527 1.04343821404614e-07   0.1536394910678338 -1.350578008375076e-07
  0.1503755853934756 -1.342055068770328e-06   0.1503913400344896 -1.151092975126953e-06    0.151205850479658 -1.234618263015774e-06   0.1517398493528574 -1.086307540831922e-06
  0.8345672095192447    179.9999986345093

!
             1.35936   0.8348777989401859    179.9999923438878   0.1544825909142065 -2.609905482163988e-06   0.1531308382150103 -3.031786198034183e-06   0.1526266799617249 -3.863921185936101e-06
  0.1522146775036771 -4.10752291362783e-06   0.1548629638433106 -2.429034999626618e-06   0.1533236401363905 -3.07394701853619e-06   0.1547303468692129 -2.371589293396249e-06
  0.1501584172606545 -4.642913854035332e-06   0.1501600192837941 -4.493853068684318e-06   0.1509996796797779 -4.644961940910432e-06   0.1515827516577778 -4.254633691511232e-06
  0.1566051925044211 -2.730424254784152e-06
  0.1544825909142063 -2.609905482163942e-06   0.8334996283977343    179.9999985505985   0.1533841405737566 2.224827109067972e-07   0.1526412863628538 -5.575367722276545e-07
  0.1524361307545378 -4.880535873627768e-07   0.1534667467146952 7.091298293896753e-09   0.1530726774672521 -5.13151988301401e-08   0.1537897105963721 2.633719040385471e-07
  0.1513644266673836 -5.219835476096295e-07   0.1511958203641158 -6.384688521949074e-07    0.151848166982272 -8.725304017788497e-07   0.1519466288839154 -1.090142277522489e-06
  0.1538713010061529 -5.052975579285068e-07
  0.1531308382150107 -3.031786198034256e-06   0.1533841405737562 2.224827109069162e-07   0.8315656887864346    179.9999989464654   0.1520835685443163 -5.25057345533539e-07
  0.1512246620521927 -8.875200768919276e-07   0.1536890477946809 4.493990616275949e-07   0.1554901952611359 1.856414420195027e-06   0.1550414124202419 6.271110561906261e-07
  0.1497076424377673 -1.833964312504821e-06   0.1498069216872625 -1.013063799695238e-06   0.1510228936442742 -1.167509962308518e-06   0.1538398238330391 -3.333569382237654e-07
  0.1531445412125337 -4.175230468937342e-07
  0.1526266799617247 -3.863921185936063e-06   0.1526412863628538 -5.575367722276639e-07   0.1520835685443163 -5.250573455335385e-07   0.8285360411168003    179.9999986206106
  0.1534484026094423 2.62945358480837e-07   0.1521185907108938 -6.887281565115699e-07   0.1526702982336894 -2.602869707846397e-07   0.1518382815649711 -8.01877465716804e-07
  0.1505936837766723 -1.092015824493248e-06   0.1517241477028277 -4.182035489328912e-07   0.1536838874248482 1.011133169614926e-06   0.1519093156432295 -1.209979127405736e-06
  0.1531978974711102 3.765218529060187e-07
  0.1522146775036776 -4.107522913627959e-06   0.1524361307545378 -4.880535873627775e-07   0.1512246620521929 -8.875200768919919e-07   0.1534484026094423 2.629453584808614e-07
  0.8226606676692337    179.9999984322265   0.1511573843215262 -1.158381205617759e-06   0.1514498573750366 -8.216092880911565e-07   0.1510380595204394 -1.108839903507789e-06
  0.1545026026353793 2.302618807009058e-06   0.1510559003161037 1.672378123993972e-07   0.1511013946989889 -7.850388818026042e-07   0.1503714152540078 -1.784941007193439e-06
  0.1526601795176795 -3.657331651272448e-07
  0.1548629638433109 -2.429034999626666e-06   0.1534667467146954 7.091298293833896e-09   0.1536890477946815 4.493990616274296e-07   0.1521185907108936 -6.887281565115212e-07
   0.151157384321526 -1.158381205617694e-06   0.8314001060020546    179.9999988588025   0.1551348865090557 7.855606578608822e-07   0.1566554335551813 2.608078314997901e-06
  0.1493366809195606 -1.734386927120018e-06   0.1493463177763984 -1.598264074500985e-06   0.1504855200181467 -1.583417223462415e-06   0.1511290223910983 -1.594506245941536e-06
  0.1540175103372838 3.558839903605965e-07
  0.1533236401363903 -3.073947018536126e-06    0.153072677467252 -5.131519883010375e-08   0.1554901952611356 1.856414420195115e-06   0.1526702982336891 -2.602869707845622e-07
  0.1514498573750365 -8.216092880911342e-07   0.1551348865090559 7.855606578608143e-07   0.8319201113599443    179.9999990153864   0.1537541574806744 4.392428513166231e-07
  0.1495681364510324 -1.862182782072218e-06   0.1496671617883819 -1.205812846127471e-06   0.1508472075494061 -1.242455399645246e-06   0.1532234219661391 -3.886682378067256e-07
  0.1537184700315267 1.216567462880266e-07
  0.1547303468692128 -2.371589293396236e-06   0.1537897105963725 2.633719040384068e-07   0.1550414124202421 6.271110561905978e-07   0.1518382815649708 -8.018774657167202e-07
  0.1510380595204393 -1.108839903507776e-06   0.1566554335551822 2.608078314997648e-06   0.1537541574806745 4.39242851316606e-07   0.8312282162419822    179.9999988991182
  0.1494360518602597 -1.623892408285191e-06   0.1494421519453155 -1.456916308364874e-06   0.1505943140815794 -1.49096300493944e-06   0.1512688041696779 -1.232960648062631e-06
  0.1536394910678343 -1.574668474810516e-07
  0.1501584172606545 -4.642913854035348e-06   0.1513644266673835 -5.219835476096237e-07   0.1497076424377668 -1.833964312504705e-06   0.1505936837766723 -1.092015824493232e-06
  0.1545026026353792 2.302618807009075e-06   0.1493366809195608 -1.734386927120044e-06   0.1495681364510329 -1.862182782072366e-06   0.1494360518602597 -1.623892408285173e-06
  0.8226766843039975    179.9999968654844   0.1683587706249933 -2.084198894206567e-06   0.1500376094682716 -1.283098082000212e-06   0.1492370756983237 -1.378229750942912e-06
  0.1503755853934756 -1.564731392889332e-06
   0.150160019283794 -4.493853068684289e-06   0.1511958203641161 -6.384688521949966e-07   0.1498069216872623 -1.013063799695175e-06   0.1517241477028276 -4.182035489328508e-07
  0.1510559003161035 1.672378123994375e-07   0.1493463177763986 -1.598264074501083e-06   0.1496671617883817 -1.205812846127423e-06   0.1494421519453155 -1.456916308364864e-06
  0.1683587706249934 -2.084198894206551e-06   0.8233538290173057     179.999997055855   0.1528848651304702 -8.449227378442921e-07   0.1493204112529291 -1.247107827860111e-06
  0.1503913400344894 -1.342084506238488e-06
  0.1509996796797781 -4.644961940910474e-06   0.1518481669822722 -8.725304017788985e-07   0.1510228936442743 -1.167509962308565e-06   0.1536838874248485 1.011133169614821e-06
  0.1511013946989886 -7.850388818025494e-07   0.1504855200181464 -1.583417223462332e-06   0.1508472075494063 -1.2424553996453e-06   0.1505943140815796 -1.490963004939484e-06
  0.1500376094682715 -1.283098082000181e-06   0.1528848651304704 -8.44922737844347e-07   0.8289898811282124    179.9999968592688   0.1642784908602954 -2.97423153687584e-06
  0.1512058504796577 -1.439468468417819e-06
  0.1515827516577776 -4.25463369151118e-06   0.1519466288839154 -1.090142277522482e-06   0.1538398238330386 -3.333569382236164e-07   0.1519093156432289 -1.209979127405571e-06
  0.1503714152540073 -1.784941007193274e-06   0.1511290223910983 -1.594506245941522e-06   0.1532234219661391 -3.886682378067081e-07   0.1512688041696773 -1.232960648062446e-06