! Touchstone data
! Created: 22-Apr-2025 by IdEM 2023 (2023.0.0)
!
!*********************************************************
! COMMENTS
!*********************************************************
!
!  Touchstone file exported from Ansys Full-Wave Spice
!  Project: 0000_PSI_S-parameter_Sweep
!   Design: unknown
!  Creation time: Tue Apr 22 07:41:11 2025
!  Notes: ! Touchstone(R) file created by SIwave 2025 R1
!       : ! Touchstone(R) file created on Tue Apr 22 07:41:11 2025
! 
!  Modal data exported
!  Port[1] = PORT_1_L19_PWR_VECMX0_Group_U25_GND_Group
!  Port[2] = PORT_2_U1_PWR_VECMX0_Group_U1_GRP_0_0_GND
!  Port[3] = PWR_VECMX0_C445_1
!  Port[4] = PWR_VECMX0_C446_1
!  Port[5] = PWR_VECMX0_C447_1
!  Port[6] = PWR_VECMX0_C448_1
!  Port[7] = PWR_VECMX0_C449_1
!  Port[8] = PWR_VECMX0_C450_1
!  Port[9] = PWR_VECMX0_C636_1
!  Port[10] = PWR_VECMX0_C654_1
!  Port[11] = PWR_VECMX0_C654_3
!  Port[12] = PWR_VECMX0_C655_1
!  Port[13] = PWR_VECMX0_C655_3
!  Port[14] = PWR_VECMX0_C656_1
!  Port[15] = PWR_VECMX0_C656_3
!
!*********************************************************
!
!
!---------------------------
! Options Used in IdEM Flow
!---------------------------
!
! Fitting Options !
!
! Bandwidth: 1.0000e+09 Hz
! Order: [2 2 6] 
! SplitType: none 
! tol: 1.0000e-03 
! DC Point: enforced 
!
!---------------------------
!
! Passivity Options !
!
! Alg: SOC+HAM 
!    Max SOC it: 200 
!    Max HAM it: 50 
! Freq sampling: adaptive
! DC Point: enforced
! Optimization method: Model based
!
!---------------------------
!

# Hz S MA R 0.1

!
                   0   0.8540695002284797                  180   0.1328767679843563                    0   0.1333196832694657                    0   0.1324107237939954                    0
  0.1331088458191268                    0   0.1340659042141124                    0   0.1321853919484914                    0   0.1328608968515932                    0
   0.136868220482297                    0   0.1317932831033367                    0   0.1313020836051813                    0   0.1308955837618824                    0
  0.1305252386201464                    0   0.1311287585072786                    0   0.1307281171569933                    0
  0.1328767679843564                    0   0.8503478557738997                  180   0.1324024301604131                    0   0.1322660996134535                    0
  0.1321495381672552                    0   0.1323033832215575                    0   0.1322834187371413                    0   0.1322328923960814                    0
  0.1327401970262084                    0   0.1318654024732689                    0   0.1317616405679097                    0   0.1321044495967208                    0
  0.1317455325909309                    0   0.1317725071119179                    0   0.1318435950164627                    0
  0.1333196832694669                    0   0.1324024301604128                    0   0.8520223912011504                  180   0.1318097929804355                    0
   0.132145391529589                    0   0.1370567230562601                    0   0.1308570007632224                    0   0.1312374306024303                    0
   0.132783425566165                    0   0.1332220133831173                    0   0.1345978602194607                    0   0.1300874455157971                    0
  0.1295498935030524                    0   0.1324587970291562                    0   0.1304945025123615                    0
  0.1324107237939963                    0   0.1322660996134524                    0   0.1318097929804346                    0   0.8523448620015256                  180
  0.1365548790327386                    0   0.1321206345279278                    0   0.1319005807818701                    0   0.1322049836077892                    0
  0.1327800603595791                    0   0.1303947785032747                    0   0.1304102468539607                    0   0.1323132861711242                    0
  0.1305135632348178                    0   0.1324645328655292                    0   0.1342006985648053                    0
  0.1331088458191262                    0   0.1321495381672556                    0   0.1321453915295898                    0   0.1365548790327398                    0
  0.8520537096348408                  180    0.132893827278476                    0    0.132217125690723                    0   0.1330007760042873                    0
   0.133837606945219                    0   0.1304377500628093                    0   0.1304230386332594                    0   0.1313707906331458                    0
  0.1304728101450402                    0   0.1313262789391589                    0    0.132115049643789                    0
  0.1340659042141123                    0   0.1323033832215582                    0   0.1370567230562605                    0   0.1321206345279285                    0
  0.1328938272784757                    0   0.8515427587900116                  180   0.1311979051130909                    0   0.1317245456188518                    0
  0.1335481001921513                    0   0.1321173000363387                    0   0.1326216255543045                    0    0.130176068292898                    0
  0.1297111418485005                    0   0.1315297546634687                    0   0.1304758440618492                    0
  0.1321853919484942                    0   0.1322834187371396                    0   0.1308570007632215                    0   0.1319005807818702                    0
  0.1322171256907219                    0   0.1311979051130899                    0   0.8501409985416614                  180   0.1379329081091936                    0
  0.1328466982408288                    0   0.1295469871275343                    0   0.1295193747038331                    0   0.1329521807379954                    0
  0.1359627617295305                    0   0.1301819634145098                    0   0.1305567003334764                    0
  0.1328608968515909                    0   0.1322328923960828                    0   0.1312374306024311                    0   0.1322049836077904                    0
  0.1330007760042875                    0   0.1317245456188527                    0   0.1379329081091947                    0   0.8501510561366562                  180
  0.1338867764953839                    0    0.129767427919526                    0   0.1297224379049836                    0   0.1316899402933742                    0
  0.1331566917742185                    0   0.1302194085510084                    0    0.130513938897708                    0
  0.1368682204822953                    0   0.1327401970262085                    0   0.1327834255661643                    0    0.132780060359578                    0
  0.1338376069452192                    0   0.1335481001921517                    0   0.1328466982408265                    0    0.133886776495386                    0
  0.8545272542621376                  180   0.1309663347676482                    0   0.1308720658348806                    0    0.130994153035105                    0
  0.1308626357082108                    0   0.1307546541039816                    0   0.1307863243942572                    0
  0.1317932831033367                    0   0.1318654024732692                    0   0.1332220133831169                    0   0.1303947785032749                    0
  0.1304377500628096                    0   0.1321173000363388                    0   0.1295469871275343                    0   0.1297674279195263                    0
  0.1309663347676484                    0   0.8433907123589035                  180   0.1455063919413986                    0   0.1291305354565075                    0
  0.1285519603062297                    0   0.1305137245148069                    0   0.1295768216528838                    0
  0.1313020836051814                    0   0.1317616405679096                    0    0.134597860219461                    0   0.1304102468539614                    0
  0.1304230386332587                    0   0.1326216255543043                    0   0.1295193747038334                    0   0.1297224379049839                    0
  0.1308720658348806                    0   0.1455063919413983                    0   0.8475272583559823                  180   0.1292102161378744                    0
  0.1285660848192996                    0    0.133374946336891                    0   0.1296392441325218                    0
  0.1308955837618817                    0    0.132104449596721                    0   0.1300874455157971                    0   0.1323132861711244                    0
  0.1313707906331457                    0    0.130176068292898                    0    0.132952180737995                    0   0.1316899402933742                    0
  0.1309941530351048                    0    0.129130535456507                    0   0.1292102161378745                    0   0.8488590993854328                  180
  0.1446935109690135                    0   0.1299154161981775                    0   0.1333255214755953                    0
  0.1305252386201462                    0   0.1317455325909309                    0   0.1295498935030523                    0   0.1305135632348181                    0
    0.13047281014504                    0   0.1297111418485005                    0   0.1359627617295304                    0   0.1331566917742184                    0
  0.1308626357082112                    0   0.1285519603062293                    0   0.1285660848192998                    0   0.1446935109690135                    0
  0.8434181277132277                  180   0.1292835789365159                    0   0.1298227224174993                    0
  0.1311287585072782                    0   0.1317725071119182                    0   0.1324587970291563                    0   0.1324645328655293                    0
  0.1313262789391585                    0   0.1315297546634686                    0   0.1301819634145096                    0   0.1302194085510085                    0
  0.1307546541039817                    0   0.1305137245148068                    0   0.1333749463368905                    0   0.1299154161981773                    0
  0.1292835789365155                    0   0.8491372136480312                  180   0.1442128913654083                    0
  0.1307281171569928                    0   0.1318435950164629                    0   0.1304945025123613                    0   0.1342006985648058                    0
   0.132115049643789                    0   0.1304758440618493                    0   0.1305567003334763                    0   0.1305139388977083                    0
  0.1307863243942573                    0   0.1295768216528843                    0   0.1296392441325219                    0   0.1333255214755956                    0
  0.1298227224174995                    0    0.144212891365408                    0   0.8482919727358329                  180

!
                   1   0.8540695002284636    179.9999932867945    0.132876767984355 -3.052104172870934e-06   0.1333196832694647 -2.624075800759786e-06   0.1324107237939942 -3.075795112499333e-06
  0.1331088458191256 -2.721458202095598e-06   0.1340659042141114 -2.260070060014599e-06   0.1321853919484898 -3.491214073040754e-06   0.1328608968515919 -3.099350180300168e-06
  0.1368682204822952 -2.062555479388633e-06   0.1317932831033357 -2.62493758503463e-06   0.1313020836051796 -3.582987657191089e-06   0.1308955837618809 -3.639187830387364e-06
  0.1305252386201444 -4.136602723863106e-06   0.1311287585072771 -3.483241478175658e-06   0.1307281171569917 -3.801151001672633e-06
  0.1328767679843551 -3.052104172870974e-06   0.8503478557738948    179.9999986329942   0.1324024301604131 -3.661916326416758e-07   0.1322660996134534 -2.950859802728391e-07
   0.132149538167255 -4.20547315967069e-07   0.1323033832215574 -4.240123415762662e-07   0.1322834187371411 -3.607678215885072e-07   0.1322328923960812 -4.341524537236393e-07
  0.1327401970262081 -7.219178897480608e-07   0.1318654024732688 -2.718985696495908e-07   0.1317616405679092 -5.276466997020316e-07   0.1321044495967209 -2.641494587000111e-08
  0.1317455325909301 -5.756834422233045e-07   0.1317725071119178 -2.638134748526056e-07   0.1318435950164623 -3.662694135617717e-07
  0.1333196832694658 -2.624075800760074e-06   0.1324024301604127 -3.661916326416025e-07   0.8520223912011488    179.9999990579304   0.1318097929804356 -4.197823329093232e-07
   0.132145391529589 -1.631907450096338e-07   0.1370567230562614 2.587355906365172e-06    0.130857000763222 -9.83354673732534e-07   0.1312374306024301 -6.62111861465766e-07
  0.1327834255661652 -2.198764133144118e-07   0.1332220133831163 -9.960852920829447e-07   0.1345978602194605 2.114012512168037e-07    0.130087445515797 -9.240121808593212e-07
  0.1295498935030515 -1.599825506547527e-06   0.1324587970291571 7.339451804384319e-07   0.1304945025123611 -9.92107757201465e-07
  0.1324107237939951 -3.075795112499552e-06   0.1322660996134523 -2.950859802725268e-07   0.1318097929804346 -4.197823329090766e-07   0.8523448620015233     179.999999011857
  0.1365548790327398 2.386117238421524e-06   0.1321206345279278 -2.815070062853654e-07     0.13190058078187 -3.866975351634407e-07   0.1322049836077893 -1.151889679031177e-07
  0.1327800603595795 -4.816029213496047e-09   0.1303947785032741 -1.185021798132794e-06   0.1304102468539602 -1.168066868909154e-06   0.1323132861711249 6.194580138995847e-07
  0.1305135632348174 -9.871104404571058e-07   0.1324645328655274 -1.985216416689962e-06   0.1342006985648052 2.011278394727918e-07
   0.133108845819125 -2.721458202095461e-06   0.1321495381672555 -4.205473159672012e-07   0.1321453915295899 -1.631907450098331e-07    0.136554879032741 2.386117238421106e-06
  0.8520537096348383    179.9999991121957   0.1328938272784761 1.803971996240475e-07   0.1322171256907227 -4.038811201852541e-07   0.1330007760042876 2.608390308486528e-07
  0.1338376069452197 5.39414795024287e-07   0.1304377500628087 -1.210348859642852e-06   0.1304230386332589 -1.12078710551551e-06   0.1313707906331461 -5.769719688312381e-08
  0.1304728101450394  -1.285320096487e-06   0.1313262789391576 -1.650291565020539e-06    0.132115049643789 -3.364752368843338e-07
  0.1340659042141114 -2.260070060014589e-06    0.132303383221558 -4.240123415764228e-07   0.1370567230562617 2.587355906365103e-06   0.1321206345279286 -2.815070062855934e-07
  0.1328938272784758 1.80397199624121e-07   0.8515427587900097      179.99999913695   0.1311979051130905 -8.567831540663184e-07   0.1317245456188517 -4.449852380042578e-07
  0.1335481001921516 2.044426202571612e-07   0.1321173000363381 -7.323937155415794e-07   0.1326216255543045 -2.186623609479356e-07   0.1301760682928978 -9.237196983042757e-07
  0.1297111418484995 -1.624804976155897e-06   0.1315297546634691 6.230554239638403e-08   0.1304758440618487 -1.107039214932682e-06
  0.1321853919484926 -3.491214073041429e-06   0.1322834187371395 -3.607678215880636e-07   0.1308570007632211 -9.833546737322871e-07   0.1319005807818702 -3.86697535163483e-07
  0.1322171256907216 -4.038811201849512e-07   0.1311979051130896 -8.567831540660594e-07   0.8501409985416574    179.9999987160744   0.1379329081091948 2.746794018399975e-06
  0.1328466982408289 -9.570969408371711e-08   0.1295469871275339 -1.323621850966497e-06   0.1295193747038326 -1.38054858267615e-06   0.1329521807379944 -1.106351662024077e-06
  0.1359627617295315 1.450788504216712e-06   0.1301819634145089 -1.534752311314402e-06   0.1305567003334761 -1.011452731135187e-06
  0.1328608968515895 -3.099350180299577e-06   0.1322328923960826 -4.341524537240228e-07   0.1312374306024309 -6.621118614659748e-07   0.1322049836077905 -1.151889679034473e-07
  0.1330007760042877 2.608390308486112e-07   0.1317245456188526 -4.449852380044934e-07   0.1379329081091958 2.746794018399687e-06   0.8501510561366534    179.9999989849367
  0.1338867764953846 8.263520643732718e-07   0.1297674279195254 -1.322115788759748e-06   0.1297224379049831 -1.341200244161332e-06   0.1316899402933737 -9.415459305439193e-07
  0.1331566917742186 1.552325310244307e-07   0.1302194085510076 -1.504512533095077e-06   0.1305139388977076 -1.028858501251381e-06
  0.1368682204822936 -2.062555479388221e-06   0.1327401970262082 -7.219178897480815e-07   0.1327834255661644 -2.198764133142272e-07   0.1327800603595785 -4.816029213223029e-09
  0.1338376069452198 5.394147950242611e-07   0.1335481001921521 2.044426202570327e-07   0.1328466982408266 -9.570969408310027e-08   0.1338867764953868 8.263520643726797e-07
  0.8545272542621343    179.9999985607385   0.1309663347676476 -1.237235285962228e-06     0.13087206583488 -1.390423044343797e-06   0.1309941530351046 -1.104563227090979e-06
  0.1308626357082101 -1.31219981653538e-06   0.1307546541039806 -1.614661295619438e-06   0.1307863243942567 -1.304339219805558e-06
  0.1317932831033357 -2.624937585034616e-06   0.1318654024732691 -2.7189856964966e-07   0.1332220133831158 -9.96085292082827e-07   0.1303947785032744 -1.185021798132865e-06
  0.1304377500628089 -1.210348859642908e-06   0.1321173000363383 -7.323937155416194e-07   0.1295469871275338 -1.32362185096648e-06   0.1297674279195257 -1.322115788759817e-06
  0.1309663347676479 -1.237235285962297e-06   0.8433907123588945    179.9999975049334   0.1455063919413951 -1.667023339743035e-06   0.1291305354565072 -1.184732359767763e-06
  0.1285519603062296 -1.108767054596089e-06   0.1305137245148071 -4.103094822213723e-07   0.1295768216528838 -8.284380915655616e-07
  0.1313020836051798 -3.582987657191128e-06   0.1317616405679092 -5.276466997020241e-07   0.1345978602194609 2.114012512167233e-07   0.1304102468539609 -1.168066868909329e-06
  0.1304230386332583 -1.120787105515325e-06   0.1326216255543043 -2.186623609478763e-07   0.1295193747038329 -1.380548582676236e-06   0.1297224379049834 -1.341200244161414e-06
    0.13087206583488 -1.390423044343805e-06   0.1455063919413948 -1.667023339742967e-06   0.8475272583559748    179.9999977556995   0.1292102161378744 -8.897189850533652e-07
  0.1285660848192993 -1.133380801730577e-06   0.1333749463368915 2.180156674815978e-07   0.1296392441325218 -6.491693853396768e-07
  0.1308955837618803 -3.639187830387198e-06   0.1321044495967211 -2.64149458700322e-08    0.130087445515797 -9.240121808593122e-07   0.1323132861711252 6.194580138995272e-07
  0.1313707906331461 -5.769719688309772e-08   0.1301760682928978 -9.237196983042925e-07   0.1329521807379941 -1.106351662023964e-06   0.1316899402933737 -9.415459305439505e-07
  0.1309941530351044 -1.104563227090936e-06   0.1291305354565067 -1.184732359767627e-06   0.1292102161378745 -8.897189850533812e-07   0.8488590993854258     179.999997920239
  0.1446935109690095 -2.266472104960437e-06   0.1299154161981771 -1.019500201439771e-06   0.1333255214755955 -1.074388799957803e-08
  0.1305252386201442 -4.136602723863072e-06   0.1317455325909301 -5.756834422232893e-07   0.1295498935030514 -1.599825506547519e-06   0.1305135632348176 -9.871104404571606e-07
  0.1304728101450392 -1.285320096486928e-06   0.1297111418484995 -1.62480497615589e-06   0.1359627617295314 1.450788504216752e-06   0.1331566917742185 1.552325310244235e-07
  0.1308626357082105 -1.312199816535486e-06   0.1285519603062291 -1.108767054595944e-06   0.1285660848192996 -1.133380801730646e-06   0.1446935109690096 -2.266472104960491e-06
  0.8434181277132178    179.9999975468541   0.1292835789365155 -1.166674214138296e-06   0.1298227224174995 -3.603965205223166e-07
  0.1311287585072768 -3.483241478175575e-06   0.1317725071119181 -2.638134748526754e-07   0.1324587970291572 7.339451804383944e-07   0.1324645328655275 -1.985216416689987e-06
  0.1313262789391572 -1.65029156502044e-06    0.131529754663469 6.230554239642724e-08   0.1301819634145088 -1.534752311314377e-06   0.1302194085510076 -1.504512533095077e-06
  0.1307546541039807 -1.61466129561947e-06   0.1305137245148069 -4.103094822213266e-07    0.133374946336891 2.180156674817339e-07   0.1299154161981769 -1.019500201439725e-06
  0.1292835789365151 -1.166674214138191e-06   0.8491372136480213    179.9999975267021   0.1442128913654042 -2.39877857748351e-06
  0.1307281171569911 -3.801151001672516e-06   0.1318435950164625 -3.662694135618249e-07   0.1304945025123609 -9.921077572013959e-07   0.1342006985648057 2.011278394726757e-07
   0.132115049643789 -3.364752368843459e-07   0.1304758440618488 -1.107039214932721e-06    0.130556700333476 -1.01145273113517e-06   0.1305139388977079 -1.028858501251471e-06
  0.1307863243942568 -1.304339219805597e-06   0.1295768216528843 -8.284380915656827e-07   0.1296392441325219 -6.491693853397086e-07   0.1333255214755958 -1.07438879996531e-08
  0.1298227224174998 -3.603965205223935e-07    0.144212891365404 -2.398778577483464e-06   0.8482919727358255    179.9999978430184

!
             1.16591   0.8540695002284575    179.9999921730066   0.1328767679843545 -3.558478776191829e-06   0.1333196832694643 -3.059436216863745e-06   0.1324107237939937 -3.586100279613984e-06
  0.1331088458191252 -3.172975332405173e-06    0.134065904214111 -2.635038283671533e-06   0.1321853919484892 -4.070441399898794e-06   0.1328608968515914 -3.613563368713641e-06
  0.1368682204822946 -2.40475405897384e-06   0.1317932831033353 -3.060440979767628e-06   0.1313020836051791 -4.177441139395509e-06   0.1308955837618804 -4.242965483326791e-06
  0.1305252386201436 -4.822906481779043e-06   0.1311287585072766 -4.061146071819641e-06   0.1307281171569911 -4.431799964359986e-06
  0.1328767679843547 -3.558478776191878e-06   0.8503478557738932    179.9999984061943    0.132402430160413 -4.269464864132499e-07   0.1322660996134534 -3.440436952599012e-07
   0.132149538167255 -4.903203211591521e-07   0.1323033832215574 -4.943602291671752e-07   0.1322834187371411 -4.20622810868245e-07   0.1322328923960812 -5.061826873209137e-07
   0.132740197026208 -8.416912868361366e-07   0.1318654024732688 -3.170092613401459e-07   0.1317616405679091 -6.151885636495488e-07    0.132104449596721 -3.079744953930503e-08
  0.1317455325909299 -6.711950821224963e-07   0.1317725071119178 -3.0758276846539e-07   0.1318435950164622 -4.27037171965763e-07
  0.1333196832694654 -3.059436216864082e-06   0.1324024301604127 -4.269464864131646e-07   0.8520223912011479    179.9999989016317   0.1318097929804356 -4.894284197623137e-07
  0.1321453915295891 -1.902657215141837e-07   0.1370567230562618 3.016624124790113e-06   0.1308570007632219 -1.146503047651463e-06   0.1312374306024301 -7.719628404015364e-07
  0.1327834255661653 -2.563561090474256e-07   0.1332220133831159 -1.161345802892328e-06   0.1345978602194604 2.464748328062058e-07   0.1300874455157969 -1.077315041785675e-06
  0.1295498935030512 -1.865252556338736e-06   0.1324587970291575 8.557140253248787e-07    0.130494502512361 -1.156708355198723e-06
  0.1324107237939946 -3.58610027961424e-06   0.1322660996134523 -3.440436952595373e-07   0.1318097929804346 -4.894284197620263e-07   0.8523448620015225    179.9999988479142
  0.1365548790327404 2.781997949447919e-06   0.1321206345279278 -3.282118336981721e-07     0.13190058078187 -4.508545232224059e-07   0.1322049836077893 -1.342999695679322e-07
  0.1327800603595796 -5.61505662035507e-09   0.1303947785032739 -1.381628764660954e-06     0.13041024685396 -1.361860843129823e-06   0.1323132861711252 7.222322929855906e-07
  0.1305135632348172 -1.150881933633295e-06   0.1324645328655268 -2.314583672382813e-06   0.1342006985648051 2.344969593197386e-07
  0.1331088458191247 -3.172975332405013e-06   0.1321495381672555 -4.903203211593063e-07   0.1321453915295899 -1.902657215144162e-07   0.1365548790327416 2.781997949447431e-06
  0.8520537096348374    179.9999989649001   0.1328938272784762 2.103268990136627e-07   0.1322171256907226 -4.708890368351606e-07   0.1330007760042876 3.04114834456734e-07
  0.1338376069452199 6.289091036667022e-07   0.1304377500628084 -1.411157838946131e-06   0.1304230386332587 -1.306736894191541e-06   0.1313707906331462 -6.726973881803767e-08
  0.1304728101450391 -1.498567553695077e-06   0.1313262789391572 -1.924091438572966e-06    0.132115049643789 -3.922998434358145e-07
   0.134065904214111 -2.635038283671522e-06    0.132303383221558 -4.943602291673577e-07   0.1370567230562622 3.016624124790032e-06   0.1321206345279286 -3.282118336984378e-07
  0.1328938272784758 2.103268990137485e-07   0.8515427587900093    179.9999989937613   0.1311979051130904 -9.989320471574257e-07   0.1317245456188517 -5.188127388415349e-07
  0.1335481001921517 2.383616953839942e-07    0.132117300036338 -8.539051568870277e-07   0.1326216255543045 -2.549406332528058e-07   0.1301760682928977 -1.076974033449917e-06
  0.1297111418484992 -1.894376369749823e-06   0.1315297546634693 7.264265493532319e-08   0.1304758440618485 -1.290708091082115e-06
   0.132185391948492 -4.070441399899583e-06   0.1322834187371394 -4.206228108677279e-07    0.130857000763221 -1.146503047651175e-06   0.1319005807818702 -4.508545232224552e-07
  0.1322171256907215 -4.708890368348073e-07   0.1311979051130894 -9.989320471571237e-07   0.8501409985416561    179.9999985030582   0.1379329081091951 3.202514613992631e-06
  0.1328466982408289 -1.115888894291585e-07   0.1295469871275337 -1.543223952260301e-06   0.1295193747038324 -1.609595398027899e-06   0.1329521807379941 -1.289906466270399e-06
  0.1359627617295318 1.69148882495121e-06   0.1301819634145086 -1.789383067284487e-06   0.1305567003334759 -1.179262853757787e-06
   0.132860896851589 -3.613563368712952e-06   0.1322328923960826 -5.061826873213609e-07   0.1312374306024309 -7.719628404017801e-07   0.1322049836077905 -1.342999695683164e-07
  0.1330007760042878 3.041148344566856e-07   0.1317245456188526 -5.188127388418098e-07   0.1379329081091961 3.202514613992295e-06   0.8501510561366526    179.9999988165276
  0.1338867764953849 9.634521353733642e-07   0.1297674279195252 -1.541468019272821e-06    0.129722437904983 -1.563718776670087e-06   0.1316899402933734 -1.097757815880406e-06
  0.1331566917742187 1.809871602466805e-07   0.1302194085510072 -1.754126207460791e-06   0.1305139388977075 -1.199556415193958e-06
   0.136868220482293 -2.40475405897336e-06   0.1327401970262081 -8.416912868361605e-07   0.1327834255661645 -2.563561090472104e-07   0.1327800603595786 -5.615056620036726e-09
    0.13383760694522 6.289091036666721e-07   0.1335481001921522 2.383616953838441e-07   0.1328466982408266 -1.115888894284398e-07    0.133886776495387 9.634521353726745e-07
  0.8545272542621335    179.9999983219506   0.1309663347676474 -1.442504992256166e-06   0.1308720658348798 -1.621108131630819e-06   0.1309941530351044 -1.287821312097603e-06
  0.1308626357082099 -1.529906888096698e-06   0.1307546541039802 -1.882549751175557e-06   0.1307863243942565 -1.520742139763448e-06
  0.1317932831033353 -3.060440979767611e-06   0.1318654024732691 -3.170092613402265e-07   0.1332220133831155 -1.16134580289219e-06   0.1303947785032742 -1.381628764661036e-06
  0.1304377500628087 -1.411157838946197e-06   0.1321173000363381 -8.539051568870743e-07   0.1295469871275337 -1.543223952260283e-06   0.1297674279195255 -1.541468019272901e-06
  0.1309663347676477 -1.442504992256247e-06   0.8433907123588917    179.9999970909768   0.1455063919413938 -1.943599182039477e-06    0.129130535456507 -1.381291305576799e-06
  0.1285519603062295 -1.292722596624113e-06   0.1305137245148072 -4.783839284167432e-07   0.1295768216528838 -9.658842553372039e-07
  0.1313020836051792 -4.177441139395557e-06    0.131761640567909 -6.151885636495401e-07   0.1345978602194608 2.464748328061121e-07   0.1304102468539607 -1.361860843130026e-06
  0.1304230386332581 -1.306736894191326e-06   0.1326216255543043 -2.549406332527367e-07   0.1295193747038328  -1.609595398028e-06   0.1297224379049832 -1.563718776670183e-06
  0.1308720658348798 -1.621108131630828e-06   0.1455063919413934 -1.943599182039398e-06   0.8475272583559719    179.9999973833476   0.1292102161378744 -1.037332261863573e-06
  0.1285660848192992 -1.32142001054567e-06   0.1333749463368917 2.541866468734174e-07   0.1296392441325218 -7.568730780613857e-07
  0.1308955837618797 -4.242965483326597e-06   0.1321044495967211 -3.079744953934114e-08   0.1300874455157969 -1.077315041785665e-06   0.1323132861711254 7.222322929855237e-07
  0.1313707906331462 -6.726973881800725e-08   0.1301760682928977 -1.076974033449937e-06   0.1329521807379938 -1.289906466270266e-06   0.1316899402933735 -1.097757815880442e-06
  0.1309941530351043 -1.287821312097553e-06   0.1291305354565065 -1.38129130557664e-06   0.1292102161378745 -1.037332261863591e-06   0.8488590993854234    179.9999975751859
  0.1446935109690081 -2.642502491894061e-06    0.129915416198177 -1.188645479860608e-06   0.1333255214755956 -1.252640645760942e-08
  0.1305252386201435 -4.822906481779003e-06   0.1317455325909299 -6.711950821224785e-07   0.1295498935030511 -1.865252556338726e-06   0.1305135632348174 -1.150881933633359e-06
  0.1304728101450389 -1.498567553694993e-06   0.1297111418484992 -1.894376369749815e-06   0.1359627617295318 1.691488824951256e-06   0.1331566917742186 1.809871602466721e-07
  0.1308626357082102 -1.529906888096821e-06    0.128551960306229 -1.292722596623943e-06   0.1285660848192995 -1.321420010545751e-06   0.1446935109690082 -2.642502491894125e-06
  0.8434181277132144    179.9999971398527   0.1292835789365154 -1.360237133005943e-06   0.1298227224174996 -4.201899072422001e-07
  0.1311287585072762 -4.061146071819543e-06   0.1317725071119181 -3.075827684654712e-07   0.1324587970291576 8.557140253248346e-07   0.1324645328655268 -2.314583672382842e-06
  0.1313262789391568 -1.924091438572852e-06   0.1315297546634692 7.264265493537361e-08   0.1301819634145085 -1.789383067284459e-06   0.1302194085510073 -1.754126207460792e-06
  0.1307546541039804 -1.882549751175595e-06    0.130513724514807 -4.7838392841669e-07   0.1333749463368911 2.54186646873576e-07   0.1299154161981768 -1.188645479860555e-06