! Touchstone data
! Created: 22-Apr-2025 by IdEM 2023 (2023.0.0)
!
!*********************************************************
! COMMENTS
!*********************************************************
!
!  Touchstone file exported from Ansys Full-Wave Spice
!  Project: 0000_PSI_S-parameter_Sweep
!   Design: unknown
!  Creation time: Tue Apr 22 09:49:36 2025
!  Notes: ! Touchstone(R) file created by SIwave 2025 R1
!       : ! Touchstone(R) file created on Tue Apr 22 09:49:36 2025
! 
!  Modal data exported
!  Port[1] = PORT_5_L29_SOC_VNPU_Group_U43_GND_Group
!  Port[2] = PORT_6_U1_SOC_VNPU_Group_U1_GRP_1_1_GND
!  Port[3] = SOC_VNPU_C483_1
!  Port[4] = SOC_VNPU_C484_1
!  Port[5] = SOC_VNPU_C486_1
!  Port[6] = SOC_VNPU_C487_1
!  Port[7] = SOC_VNPU_C488_1
!  Port[8] = SOC_VNPU_C489_1
!  Port[9] = SOC_VNPU_C556_1
!  Port[10] = SOC_VNPU_C556_3
!  Port[11] = SOC_VNPU_C558_1
!  Port[12] = SOC_VNPU_C558_3
!  Port[13] = SOC_VNPU_C647_1
!
!*********************************************************
!
!
!---------------------------
! Options Used in IdEM Flow
!---------------------------
!
! Fitting Options !
!
! Bandwidth: 1.0000e+09 Hz
! Order: [2 2 6] 
! SplitType: none 
! tol: 1.0000e-03 
! DC Point: enforced 
!
!---------------------------
!
! Passivity Options !
!
! Alg: SOC+HAM 
!    Max SOC it: 200 
!    Max HAM it: 50 
! Freq sampling: adaptive
! DC Point: enforced
! Optimization method: Model based
!
!---------------------------
!

# Hz S MA R 0.1

!
                   0   0.8364631018425291                  180   0.1537051776068963                    0   0.1528174142891906                    0   0.1540737981542567                    0
  0.1543556601172538                    0   0.1527369488659572                    0   0.1530132601209749                    0   0.1528791631229144                    0
  0.1511889102032953                    0   0.1516752238915404                    0   0.1517556489087653                    0   0.1516421360545963                    0
  0.1566197593966662                    0
  0.1537051776068968                    0   0.8332697928481447                  180   0.1535763128054879                    0   0.1528104947165832                    0
  0.1526758211929124                    0   0.1537055549718294                    0   0.1529499751151654                    0   0.1531562284147124                    0
  0.1518345248645958                    0   0.1518057926430726                    0   0.1519316834243672                    0   0.1514417220127764                    0
  0.1536765039695219                    0
  0.1528174142891899                    0   0.1535763128054878                    0   0.8321803926773225                  180    0.152251171032749                    0
  0.1514717549234206                    0   0.1548454563144985                    0   0.1555519619143187                    0   0.1537173972133713                    0
  0.1535375775736234                    0    0.150944641708225                    0   0.1506180570526753                    0   0.1499242032954364                    0
  0.1529244434441019                    0
  0.1540737981542581                    0    0.152810494716583                    0   0.1522511710327487                    0    0.831057173489739                  180
  0.1533448848201347                    0   0.1519192903019439                    0   0.1526242687728482                    0   0.1521004063994049                    0
  0.1516220125092779                    0   0.1535549472062733                    0    0.152771983969109                    0   0.1509320987156011                    0
   0.153051815781332                    0
  0.1543556601172527                    0   0.1526758211929122                    0   0.1514717549234207                    0   0.1533448848201347                    0
  0.8276345814641438                  180   0.1512357058098587                    0   0.1514478239327274                    0   0.1512164834364876                    0
   0.150476028459686                    0   0.1512278715667917                    0   0.1523676694305469                    0   0.1551437162110005                    0
  0.1526711604530988                    0
  0.1527369488659572                    0   0.1537055549718295                    0   0.1548454563144993                    0   0.1519192903019428                    0
  0.1512357058098591                    0   0.8305074333273496                  180   0.1536930316338407                    0    0.157448421212123                    0
  0.1509592953543777                    0   0.1504303903335975                    0   0.1501618672369843                    0   0.1495802366994314                    0
  0.1537912334826834                    0
  0.1530132601209746                    0   0.1529499751151655                    0   0.1555519619143185                    0   0.1526242687728482                    0
  0.1514478239327277                    0   0.1536930316338406                    0   0.8301402564529815                  180   0.1544705545756767                    0
   0.152683819717011                    0   0.1505595878969437                    0   0.1502743517508883                    0   0.1496008400484833                    0
  0.1532707798638801                    0
  0.1528791631229144                    0   0.1531562284147122                    0   0.1537173972133712                    0   0.1521004063994059                    0
  0.1512164834364877                    0    0.157448421212123                    0   0.1544705545756766                    0   0.8294839877467011                  180
  0.1506559470369868                    0   0.1501960399163044                    0   0.1499449526134049                    0   0.1493717495640774                    0
  0.1543266431310151                    0
  0.1511889102032971                    0   0.1518345248645951                    0   0.1535375775736222                    0   0.1516220125092779                    0
  0.1504760284596856                    0   0.1509592953543783                    0    0.152683819717011                    0   0.1506559470369862                    0
  0.8276290230347269                  180   0.1642178909957389                    0   0.1499279554924273                    0   0.1492553747187549                    0
  0.1512696849987275                    0
  0.1516752238915384                    0   0.1518057926430725                    0   0.1509446417082254                    0    0.153554947206273                    0
   0.151227871566792                    0   0.1504303903335967                    0   0.1505595878969435                    0   0.1501960399163043                    0
  0.1642178909957389                    0   0.8292995565909111                  180   0.1535612656728769                    0    0.150156223767984                    0
  0.1509696798813399                    0
  0.1517556489087608                    0   0.1519316834243679                    0   0.1506180570526761                    0   0.1527719839691098                    0
  0.1523676694305479                    0    0.150161867236983                    0   0.1502743517508871                    0   0.1499449526134056                    0
  0.1499279554924285                    0   0.1535612656728761                    0   0.8290269193813214                  180    0.164674014879846                    0
  0.1510374678392082                    0
  0.1516421360545998                    0   0.1514417220127758                    0   0.1499242032954354                    0   0.1509320987156003                    0
  0.1551437162109999                    0   0.1495802366994326                    0   0.1496008400484841                    0   0.1493717495640767                    0
  0.1492553747187543                    0   0.1501562237679848                    0   0.1646740148798464                    0   0.8222144694727582                  180
  0.1504921523945448                    0
  0.1566197593966659                    0    0.153676503969522                    0   0.1529244434441011                    0   0.1530518157813331                    0
  0.1526711604530982                    0   0.1537912334826834                    0   0.1532707798638803                    0   0.1543266431310148                    0
  0.1512696849987289                    0   0.1509696798813388                    0   0.1510374678392055                    0   0.1504921523945474                    0
  0.8341013257463425                  180

!
                   1   0.8364631018425168    179.9999938586903    0.153705177606895 -2.856553211822753e-06   0.1528174142891893 -3.033667483004373e-06   0.1540737981542557 -2.336089477540905e-06
  0.1543556601172531 -1.798269911305259e-06   0.1527369488659559 -3.0688905771701e-06   0.1530132601209737 -2.747270348858406e-06   0.1528791631229131 -2.871789185077433e-06
  0.1511889102032937 -3.359889146031146e-06   0.1516752238915391 -3.189618897052112e-06    0.151755648908764 -3.122648627730325e-06   0.1516421360545951 -2.984345912648578e-06
  0.1566197593966646 -2.465101732411439e-06
  0.1537051776068955 -2.856553211822853e-06    0.833269792848142     179.999999045331    0.153576312805488 1.216899070533807e-07   0.1528104947165831 -2.029798293517882e-07
  0.1526758211929123 -2.658061650715412e-07   0.1537055549718295 1.571504856583165e-07   0.1529499751151654 -1.033712042777934e-07   0.1531562284147127 1.054597442699193e-07
  0.1518345248645958 -3.444148258727901e-08   0.1518057926430726 -2.15984440004847e-07   0.1519316834243672 -1.515048894121654e-07   0.1514417220127761 -6.028174119327694e-07
  0.1536765039695217 -4.662271827830982e-07
  0.1528174142891887 -3.033667483004254e-06   0.1535763128054878 1.216899070533999e-07   0.8321803926773212    179.9999992263897    0.152251171032749 -2.924544304363542e-07
  0.1514717549234204 -6.824028240844141e-07   0.1548454563144984 1.907777831094153e-07   0.1555519619143196 1.608394169874804e-06   0.1537173972133713  8.9694214378357e-08
  0.1535375775736237 1.671579020561676e-07   0.1509446417082251 -4.011538393306539e-07   0.1506180570526753 -5.490781051906198e-07   0.1499242032954357 -1.272569280110124e-06
  0.1529244434441018 -4.005216568509704e-07
  0.1540737981542571 -2.336089477541167e-06   0.1528104947165829 -2.029798293517479e-07   0.1522511710327487 -2.924544304362877e-07   0.8310571734897373    179.9999989908104
  0.1533448848201348  1.3047484116208e-07   0.1519192903019438 -4.626009870568806e-07   0.1526242687728481 -8.760081001088336e-08   0.1521004063994048 -3.465794014404954e-07
  0.1516220125092768 -1.240492374494156e-06   0.1535549472062738 4.39325861664733e-07   0.1527719839691089 -3.751966521713916e-07   0.1509320987156008 -7.469673855457578e-07
  0.1530518157813321 -1.047925605883955e-07
   0.154355660117252 -1.798269911305041e-06   0.1526758211929121 -2.658061650715179e-07   0.1514717549234205 -6.824028240844381e-07   0.1533448848201348 1.304748411620859e-07
  0.8276345814641421    179.9999989834293   0.1512357058098584 -7.616292694422293e-07   0.1514478239327272 -5.82824846610094e-07   0.1512164834364874 -7.038914443713053e-07
  0.1504760284596855 -9.20500954318174e-07   0.1512278715667916 -5.619624596446993e-07   0.1523676694305468 -3.53271833443702e-07   0.1551437162110018 1.560987830960463e-06
  0.1526711604530984 -7.587272530477213e-07
   0.152736948865956 -3.068890577170127e-06   0.1537055549718296 1.571504856582889e-07   0.1548454563144992 1.907777831092725e-07   0.1519192903019426 -4.626009870566429e-07
  0.1512357058098588 -7.616292694422965e-07   0.8305074333273479    179.9999991316263   0.1536930316338408 7.901190276508665e-08   0.1574484212121243 2.143760416992458e-06
  0.1509592953543772 -6.631471290008371e-07   0.1504303903335974 -6.504732941671589e-07   0.1501618672369841 -7.488712836105557e-07    0.149580236699431 -1.18315700171452e-06
  0.1537912334826836 -4.201838999162854e-08
  0.1530132601209735 -2.747270348858359e-06   0.1529499751151655 -1.033712042778108e-07   0.1555519619143194 1.608394169874832e-06   0.1526242687728481 -8.760081001088395e-08
  0.1514478239327275 -5.828248466101341e-07   0.1536930316338407 7.901190276510843e-08   0.8301402564529807    179.9999992549189   0.1544705545756765 8.362458588104062e-08
  0.1526838197170114 -1.28772137533152e-08   0.1505595878969438 -5.299907581339489e-07   0.1502743517508881 -7.020609241710999e-07   0.1496008400484827 -1.314801932878679e-06
  0.1532707798638802 2.046336182907519e-08
  0.1528791631229132 -2.871789185077459e-06   0.1531562284147125 1.054597442699667e-07   0.1537173972133713 8.969421437836195e-08   0.1521004063994059 -3.465794014406983e-07
  0.1512164834364875 -7.038914443713211e-07   0.1574484212121244 2.14376041699247e-06   0.1544705545756764 8.362458588107082e-08   0.8294839877467001    179.9999991986575
  0.1506559470369863 -8.14730982476539e-07   0.1501960399163043 -7.299308460589135e-07   0.1499449526134047 -8.472197687194196e-07    0.149371749564077 -1.246978944698735e-06
  0.1543266431310156 4.857390423808776e-07
  0.1511889102032955 -3.359889146031474e-06   0.1518345248645951 -3.444148258715246e-08   0.1535375775736225 1.671579020564003e-07   0.1516220125092768 -1.240492374494161e-06
  0.1504760284596852 -9.205009543181008e-07   0.1509592953543778 -6.631471290009612e-07   0.1526838197170113 -1.287721375330865e-08   0.1506559470369858 -8.147309824764328e-07
  0.8276290230347186    179.9999977480763   0.1642178909957351 -2.759521411961671e-06   0.1499279554924271 -5.959132869087123e-07   0.1492553747187544 -1.063312739460727e-06
  0.1512696849987271 -9.627131259821925e-07
  0.1516752238915371 -3.189618897051729e-06   0.1518057926430724 -2.159844400048054e-07   0.1509446417082254 -4.011538393307396e-07   0.1535549472062736 4.393258616647974e-07
  0.1512278715667919 -5.619624596447603e-07   0.1504303903335965 -6.504732941669936e-07   0.1505595878969435 -5.299907581338955e-07   0.1501960399163042 -7.299308460588961e-07
  0.1642178909957351 -2.759521411961674e-06   0.8292995565909056    179.9999981030795    0.153561265672877 5.160987676005702e-09   0.1501562237679837 -7.268951993535723e-07
  0.1509696798813395 -1.04648799709436e-06
  0.1517556489087594 -3.122648627729473e-06   0.1519316834243679 -1.515048894123023e-07   0.1506180570526761 -5.490781051907923e-07   0.1527719839691097 -3.751966521715556e-07
  0.1523676694305477 -3.532718334438548e-07   0.1501618672369829 -7.488712836102957e-07    0.150274351750887 -7.020609241708725e-07   0.1499449526134054 -8.472197687195678e-07
  0.1499279554924282 -5.959132869089469e-07   0.1535612656728763 5.160987676168377e-09   0.8290269193813161     179.999998137996   0.1646740148798432 -1.724359799101584e-06
   0.151037467839208 -1.056004207528661e-06
  0.1516421360545986 -2.98434591264924e-06   0.1514417220127754 -6.028174119326385e-07   0.1499242032954347 -1.272569280109907e-06      0.1509320987156 -7.469673855455991e-07
  0.1551437162110012 1.560987830960604e-06   0.1495802366994321 -1.183157001714749e-06   0.1496008400484835 -1.31480193287884e-06   0.1493717495640762 -1.24697894469859e-06
  0.1492553747187539 -1.063312739460619e-06   0.1501562237679846 -7.268951993537484e-07   0.1646740148798436 -1.724359799101653e-06   0.8222144694727511    179.9999976464416
  0.1504921523945439 -1.648561334153469e-06
  0.1566197593966643 -2.465101732411383e-06   0.1536765039695218 -4.662271827831254e-07   0.1529244434441009 -4.005216568507917e-07   0.1530518157813332 -1.047925605886219e-07
  0.1526711604530979 -7.587272530476095e-07   0.1537912334826836 -4.201838999165711e-08   0.1532707798638804 2.046336182905391e-08   0.1543266431310153 4.85739042380934e-07
  0.1512696849987284 -9.627131259824716e-07   0.1509696798813384 -1.046487997094137e-06   0.1510374678392052 -1.056004207528108e-06   0.1504921523945465 -1.648561334153986e-06
  0.8341013257463393    179.9999984829327

!
             1.16591   0.8364631018425124    179.9999928397856   0.1537051776068945 -3.330483955196176e-06   0.1528174142891888 -3.536983255109539e-06   0.1540737981542553 -2.723670082759647e-06
  0.1543556601172529 -2.096620872289868e-06   0.1527369488659554 -3.578050212828301e-06   0.1530132601209733 -3.203069972437425e-06   0.1528791631229127 -3.348247728773546e-06
  0.1511889102032932 -3.917328354249064e-06   0.1516752238915386 -3.718808568261936e-06   0.1517556489087636 -3.64072726155697e-06   0.1516421360545947 -3.47947874301602e-06
  0.1566197593966639 -2.874086760835703e-06
   0.153705177606895 -3.330483955196291e-06   0.8332697928481411    179.9999988869419    0.153576312805488 1.418794795326038e-07   0.1528104947165831 -2.366562128395401e-07
  0.1526758211929122 -3.09906065918553e-07   0.1537055549718295 1.832233227338828e-07   0.1529499751151655 -1.205215207795249e-07   0.1531562284147128 1.229565704417228e-07
  0.1518345248645958 -4.015566896333438e-08   0.1518057926430726 -2.518184184460462e-07   0.1519316834243672 -1.766410656145388e-07   0.1514417220127759 -7.028308487465062e-07
  0.1536765039695216 -5.435789346786274e-07
  0.1528174142891882 -3.536983255109399e-06   0.1535763128054878 1.418794795326261e-07   0.8321803926773208      179.99999909804    0.152251171032749 -3.409755449900476e-07
  0.1514717549234203 -7.956202766282411e-07   0.1548454563144984 2.224297251051086e-07   0.1555519619143199 1.875242846598678e-06   0.1537173972133714 1.045753814858654e-07
  0.1535375775736238 1.948910695862832e-07   0.1509446417082251 -4.677092728140072e-07   0.1506180570526753 -6.401756536227962e-07   0.1499242032954355 -1.483701249373142e-06
  0.1529244434441018 -4.669722049391046e-07
  0.1540737981542567 -2.723670082759953e-06   0.1528104947165829 -2.36656212839493e-07   0.1522511710327487 -3.409755449899702e-07   0.8310571734897365    179.9999988233757
  0.1533448848201348 1.521219220592748e-07   0.1519192903019438 -5.393511168194781e-07   0.1526242687728481 -1.021346603997861e-07   0.1521004063994048 -4.040803899334793e-07
  0.1516220125092764 -1.446302464346395e-06    0.153554947206274 5.12214415373488e-07   0.1527719839691089 -4.37445528733143e-07   0.1509320987156007 -8.708967444816341e-07
  0.1530518157813321 -1.221786943156201e-07
  0.1543556601172517 -2.096620872289614e-06   0.1526758211929121 -3.099060659185257e-07   0.1514717549234204 -7.95620276628269e-07   0.1533448848201348 1.521219220592817e-07
  0.8276345814641418      179.99999881477   0.1512357058098584 -8.879911815353699e-07   0.1514478239327272 -6.79521316911162e-07   0.1512164834364873 -8.206740739069326e-07
  0.1504760284596854 -1.073221267649066e-06   0.1512278715667915 -6.551976513243401e-07   0.1523676694305467 -4.118831633303338e-07   0.1551437162110023 1.819971321995017e-06
  0.1526711604530983 -8.846076916008418e-07
  0.1527369488659555 -3.578050212828333e-06   0.1537055549718296 1.832233227338506e-07   0.1548454563144991 2.224297251049419e-07   0.1519192903019426 -5.393511168192011e-07
  0.1512357058098588 -8.879911815354485e-07   0.8305074333273474    179.9999989875544   0.1536930316338408 9.212076755283766e-08   0.1574484212121248 2.49943170777559e-06
  0.1509592953543771 -7.731698691733284e-07   0.1504303903335973 -7.583933184024246e-07   0.1501618672369841 -8.731165182743734e-07   0.1495802366994308 -1.379454579868941e-06
  0.1537912334826836 -4.898966107515235e-08
  0.1530132601209731 -3.203069972437372e-06   0.1529499751151656 -1.205215207795451e-07   0.1555519619143196 1.875242846598712e-06   0.1526242687728481 -1.021346603997869e-07
  0.1514478239327274 -6.795213169112088e-07   0.1536930316338407 9.212076755286302e-08   0.8301402564529805    179.9999991313025   0.1544705545756764 9.749874092458244e-08
  0.1526838197170115 -1.501367228715306e-08   0.1505595878969438 -6.179215248159548e-07   0.1502743517508881 -8.185398521003216e-07   0.1496008400484825 -1.532940721562531e-06
  0.1532707798638803 2.385843819013151e-08
  0.1528791631229128 -3.348247728773576e-06   0.1531562284147126 1.22956570441778e-07   0.1537173972133713 1.045753814858712e-07   0.1521004063994058 -4.040803899337157e-07
  0.1512164834364874 -8.20674073906951e-07   0.1574484212121247 2.499431707775605e-06   0.1544705545756763 9.749874092461778e-08   0.8294839877466998    179.9999990657068
  0.1506559470369861 -9.499029997791817e-07   0.1501960399163043 -8.510336727285393e-07   0.1499449526134046 -9.877820005476456e-07   0.1493717495640768 -1.453865221413667e-06
  0.1543266431310158 5.663280069022503e-07
   0.151188910203295 -3.917328354249448e-06   0.1518345248645951 -4.015566896318688e-08   0.1535375775736226 1.948910695865545e-07   0.1516220125092764 -1.446302464346401e-06
   0.150476028459685 -1.073221267648981e-06   0.1509592953543777 -7.731698691734728e-07   0.1526838197170114 -1.501367228714546e-08   0.1506559470369855 -9.499029997790574e-07
  0.8276290230347157    179.9999973744597   0.1642178909957337 -3.217353609419967e-06    0.149927955492427 -6.947812603397179e-07   0.1492553747187542 -1.239726956064618e-06
  0.1512696849987269 -1.122436860713867e-06
  0.1516752238915366 -3.718808568261488e-06   0.1518057926430724 -2.518184184459976e-07   0.1509446417082254 -4.67709272814107e-07   0.1535549472062737 5.122144153735633e-07
  0.1512278715667918 -6.551976513244111e-07   0.1504303903335965 -7.583933184022316e-07   0.1505595878969435 -6.179215248158925e-07   0.1501960399163042 -8.510336727285191e-07
  0.1642178909957337 -3.217353609419972e-06   0.8292995565909038    179.9999977883615   0.1535612656728771 6.017247141323683e-09   0.1501562237679837 -8.474943818783061e-07
  0.1509696798813394 -1.220110820692258e-06
   0.151755648908759 -3.640727261555976e-06   0.1519316834243679 -1.766410656146985e-07   0.1506180570526761 -6.401756536229974e-07   0.1527719839691097 -4.374455287333345e-07
  0.1523676694305477 -4.118831633305124e-07   0.1501618672369829 -8.731165182740701e-07    0.150274351750887 -8.185398521000568e-07   0.1499449526134054 -9.877820005478186e-07
  0.1499279554924281 -6.947812603399915e-07   0.1535612656728763 6.017247141513367e-09   0.8290269193813145    179.9999978290709   0.1646740148798422 -2.010448333370327e-06
  0.1510374678392079 -1.23120586559972e-06
  0.1516421360545982 -3.479478743016791e-06   0.1514417220127753 -7.028308487463533e-07   0.1499242032954345 -1.483701249372888e-06   0.1509320987155999 -8.708967444814488e-07
  0.1551437162110016 1.819971321995182e-06    0.149580236699432 -1.379454579869208e-06   0.1496008400484832 -1.532940721562718e-06    0.149371749564076 -1.453865221413497e-06
  0.1492553747187537 -1.239726956064492e-06   0.1501562237679845 -8.474943818785112e-07   0.1646740148798425 -2.010448333370409e-06   0.8222144694727485    179.9999972559627
  0.1504921523945436 -1.922074145102806e-06
  0.1566197593966636 -2.874086760835637e-06   0.1536765039695218 -5.43578934678659e-07   0.1529244434441009 -4.669722049388963e-07   0.1530518157813332 -1.221786943158841e-07
  0.1526711604530978 -8.846076916007114e-07   0.1537912334826837 -4.89896610751853e-08   0.1532707798638804 2.385843819010669e-08   0.1543266431310155 5.663280069023164e-07
  0.1512696849987283 -1.122436860714192e-06   0.1509696798813383 -1.220110820691998e-06   0.1510374678392051 -1.231205865599076e-06   0.1504921523945462 -1.922074145103408e-06
  0.8341013257463383     179.999998231236

!
             1.35936   0.8364631018425067    179.9999916517492   0.1537051776068939 -3.883084174023129e-06   0.1528174142891882 -4.123846229696575e-06   0.1540737981542548 -3.175586592189814e-06
  0.1543556601172525 -2.44449618663179e-06   0.1527369488659548 -4.171727094981698e-06   0.1530132601209727 -3.734529421423947e-06   0.1528791631229121 -3.903795346626629e-06
  0.1511889102032924 -4.5672989095486e-06    0.151675223891538 -4.335840343896504e-06   0.1517556489087629 -4.24480363859124e-06   0.1516421360545941 -4.056800459817741e-06
  0.1566197593966631 -3.350960690970489e-06
  0.1537051776068944 -3.883084174023263e-06   0.8332697928481394    179.9999987022611    0.153576312805488 1.654203920520744e-07   0.1528104947165831 -2.759226608276375e-07
  0.1526758211929122 -3.613262685516293e-07   0.1537055549718296 2.136240841844753e-07   0.1529499751151655 -1.405186802470687e-07   0.1531562284147129 1.433577579707058e-07
  0.1518345248645958 -4.681837376984342e-08   0.1518057926430726 -2.936006083649752e-07   0.1519316834243672 -2.059496864713244e-07   0.1514417220127758 -8.194458770848496e-07
  0.1536765039695215 -6.337705831879924e-07
  0.1528174142891875 -4.123846229696413e-06   0.1535763128054879 1.654203920521004e-07   0.8321803926773204     179.999998948385    0.152251171032749 -3.975508545579567e-07
  0.1514717549234202 -9.276311029473394e-07   0.1548454563144984 2.593356872476427e-07   0.1555519619143202 2.186386698760864e-06   0.1537173972133714 1.219267272573503e-07
  0.1535375775736239 2.272277657390083e-07   0.1509446417082251 -5.453124830325302e-07   0.1506180570526753 -7.463948130719233e-07   0.1499242032954351 -1.729879776610353e-06
  0.1529244434441017 -5.444531194569068e-07
  0.1540737981542562 -3.17558659219017e-06   0.1528104947165829 -2.759226608275827e-07   0.1522511710327487 -3.975508545578664e-07   0.8310571734897354    179.9999986281479
  0.1533448848201349 1.773622800820687e-07   0.1519192903019437 -6.288412777656149e-07   0.1526242687728481 -1.190810370963865e-07   0.1521004063994047 -4.711261751421281e-07
  0.1516220125092758 -1.68627571419214e-06   0.1535549472062743 5.972020033124592e-07   0.1527719839691089 -5.100273210956915e-07   0.1509320987156006 -1.015397585215425e-06
  0.1530518157813321 -1.424508151614522e-07
  0.1543556601172514 -2.444496186631494e-06   0.1526758211929121 -3.613262685515976e-07   0.1514717549234203 -9.276311029473723e-07   0.1533448848201348 1.773622800820768e-07
  0.8276345814641414    179.9999986181144   0.1512357058098582 -1.035328363708936e-06   0.1514478239327271 -7.922687834878626e-07   0.1512164834364872 -9.568418738205338e-07
  0.1504760284596851 -1.251292177261854e-06   0.1512278715667915 -7.639092891425873e-07   0.1523676694305467 -4.802235995099963e-07    0.155143716211003 2.121944417894148e-06
  0.1526711604530981 -1.031383478702877e-06
  0.1527369488659548 -4.171727094981735e-06   0.1537055549718297 2.136240841844378e-07   0.1548454563144991 2.593356872474487e-07   0.1519192903019426 -6.288412777652921e-07
  0.1512357058098586 -1.035328363709027e-06   0.8305074333273467    179.9999988195675   0.1536930316338408 1.074056201427358e-07   0.1574484212121254 2.91414216044263e-06
  0.1509592953543769 -9.014556812784744e-07   0.1504303903335973 -8.842273771590482e-07    0.150161867236984 -1.017985668088819e-06   0.1495802366994305 -1.608336301850554e-06
  0.1537912334826837 -5.711811861905459e-08
  0.1530132601209725 -3.734529421423883e-06   0.1529499751151656 -1.405186802470923e-07     0.15555196191432 2.186386698760902e-06   0.1526242687728481 -1.190810370963873e-07
  0.1514478239327273 -7.922687834879172e-07   0.1536930316338408 1.074056201427653e-07   0.8301402564529801    179.9999989871665   0.1544705545756763 1.136759170633022e-07
  0.1526838197170116 -1.750476928777635e-08   0.1505595878969438 -7.204482369769715e-07   0.1502743517508881 -9.54353537881212e-07   0.1496008400484821 -1.787289155477826e-06
  0.1532707798638803 2.781707553595635e-08
  0.1528791631229122 -3.903795346626665e-06   0.1531562284147127 1.433577579707702e-07   0.1537173972133714 1.219267272573569e-07   0.1521004063994058 -4.711261751424036e-07
  0.1512164834364873 -9.568418738205552e-07   0.1574484212121254 2.914142160442648e-06   0.1544705545756762 1.136759170633431e-07   0.8294839877466992    179.9999989106871
  0.1506559470369858 -1.107512708339198e-06   0.1501960399163042 -9.922387948986216e-07   0.1499449526134045 -1.151676664806395e-06   0.1493717495640765 -1.695093298265575e-06
  0.1543266431310161 6.602942246507644e-07
  0.1511889102032943 -4.567298909549046e-06   0.1518345248645951 -4.681837376967142e-08   0.1535375775736228 2.272277657393246e-07   0.1516220125092758 -1.686275714192147e-06
  0.1504760284596848 -1.251292177261754e-06   0.1509592953543774 -9.014556812786431e-07   0.1526838197170116 -1.750476928776741e-08   0.1506559470369853 -1.107512708339053e-06
  0.8276290230347119     179.999996938825   0.1642178909957319 -3.751183026563489e-06   0.1499279554924269 -8.100606856921752e-07   0.1492553747187539 -1.445424805513228e-06
  0.1512696849987267 -1.308673714935067e-06
   0.151675223891536 -4.335840343895984e-06   0.1518057926430724 -2.936006083649186e-07   0.1509446417082254 -5.453124830326466e-07    0.153554947206274 5.972020033125464e-07
  0.1512278715667918 -7.639092891426701e-07   0.1504303903335965 -8.842273771588235e-07   0.1505595878969435 -7.20448236976899e-07   0.1501960399163041 -9.922387948985979e-07
  0.1642178909957318 -3.751183026563496e-06   0.8292995565909014    179.9999974214022   0.1535612656728771 7.015640207232915e-09   0.1501562237679835 -9.881122581932244e-07
  0.1509696798813392 -1.422553923730115e-06
  0.1517556489087583 -4.244803638590081e-06   0.1519316834243679 -2.059496864715104e-07   0.1506180570526761 -7.463948130721578e-07   0.1527719839691097 -5.100273210959146e-07
  0.1523676694305476 -4.802235995102042e-07   0.1501618672369827 -1.017985668088465e-06    0.150274351750887 -9.543535378809031e-07   0.1499449526134053 -1.151676664806597e-06
   0.149927955492428 -8.100606856924943e-07   0.1535612656728763 7.015640207454086e-09    0.829026919381312    179.9999974688662   0.1646740148798408 -2.344025736506176e-06
  0.1510374678392077 -1.435489879546103e-06
  0.1516421360545976 -4.056800459818639e-06   0.1514417220127751 -8.194458770846713e-07   0.1499242032954341 -1.729879776610057e-06   0.1509320987155998 -1.015397585215209e-06
  0.1551437162110023 2.121944417894341e-06   0.1495802366994317 -1.608336301850866e-06   0.1496008400484829 -1.787289155478043e-06   0.1493717495640758 -1.695093298265378e-06