! Touchstone file exported from Ansys Full-Wave Spice
! Project: 0000_PSI_S-parameter_Sweep
!  Design: unknown
! Creation time: Thu Jun 12 21:04:01 2025
! Notes: ! Touchstone(R) file created by SIwave 2025 R1
!      : ! Touchstone(R) file created on Thu Jun 12 21:04:01 2025

# HZ S RI R 0.1
! Modal data exported
! Port[1] = PMIC_SOC_0P75VSOC
! Port[2] = PORT_1_U1_GRP_0_1_SOC_0P75VSOC_U1_GRP_0_1_GND
! Port[3] = SOC_0P75VSOC_C685_1

0.0000000000000000e+00 -2.8936275797480304e-01 0.0000000000000000e+00 6.1478256301261358e-01 0.0000000000000000e+00 6.7458019496201971e-01 0.0000000000000000e+00 6.1478256301261358e-01 0.0000000000000000e+00 
                       -2.4144949847424224e-01 0.0000000000000000e+00 6.2666693546146623e-01 0.0000000000000000e+00 6.7458019496201971e-01 0.0000000000000000e+00 6.2666693546146623e-01 0.0000000000000000e+00 
                       -3.0124713042365492e-01 0.0000000000000000e+00 

1.0000000000000000e+00 -2.8936162692721612e-01 2.3453756866915703e-08 6.1478195488744236e-01 -2.6579173710179252e-08 6.7458084388053885e-01 3.0806089238085764e-09 6.1478195488744236e-01 -2.6579173710179252e-08 
                       -2.4145218612467678e-01 5.2316750166177353e-08 6.2666575435376048e-01 -2.5699814207318810e-08 6.7458084388053885e-01 3.0806089238085764e-09 6.2666575435376048e-01 -2.5699814207318810e-08 
                       -3.0124720057057830e-01 2.2649110566540761e-08 

1.1659100000000000e+00 -2.8936162692722556e-01 2.7344969668729274e-08 6.1478195488744924e-01 -3.0988924420448219e-08 6.7458084388053718e-01 3.5917127503466750e-09 6.1478195488744924e-01 -3.0988924420448219e-08 
                       -2.4145218612468988e-01 6.0996622186267064e-08 6.2666575435376237e-01 -2.9963670382470591e-08 6.7458084388053718e-01 3.5917127503466750e-09 6.2666575435376237e-01 -2.9963670382470591e-08 
                       -3.0124720057058396e-01 2.6406824500631335e-08 

1.3593599999999999e+00 -2.8936162692723622e-01 3.1882098934665433e-08 6.1478195488746123e-01 -3.6130665574726192e-08 6.7458084388053807e-01 4.1876565466507719e-09 6.1478195488746123e-01 -3.6130665574726192e-08 
                       -2.4145218612470520e-01 7.1117297505954001e-08 6.2666575435376837e-01 -3.4935299440888961e-08 6.7458084388053807e-01 4.1876565466507719e-09 6.2666575435376837e-01 -3.4935299440888961e-08 
                       -3.0124720057058774e-01 3.0788294939746161e-08 

1.4678000000000000e+00 -2.8936162692724166e-01 3.4425424329335828e-08 6.1478195488746978e-01 -3.9012911171874263e-08 6.7458084388054029e-01 4.5217177783703901e-09 6.1478195488746978e-01 -3.9012911171874263e-08 
                       -2.4145218612471342e-01 7.6790525894022696e-08 6.2666575435377370e-01 -3.7722187293519192e-08 6.7458084388054029e-01 4.5217177783703901e-09 6.2666575435377370e-01 -3.7722187293519192e-08 
                       -3.0124720057058885e-01 3.3244364489591158e-08 

1.5848899999999999e+00 -2.8936162692725209e-01 3.7171624720904708e-08 6.1478195488747567e-01 -4.2125066621621945e-08 6.7458084388053763e-01 4.8824262772588318e-09 6.1478195488747567e-01 -4.2125066621621945e-08 
                       -2.4145218612472763e-01 8.2916294171020300e-08 6.2666575435377470e-01 -4.0731378539078069e-08 6.7458084388053763e-01 4.8824262772588318e-09 6.2666575435377470e-01 -4.0731378539078069e-08 
                       -3.0124720057059517e-01 3.5896348845828874e-08 

1.7113300000000000e+00 -2.8936162692726541e-01 4.0137117739192800e-08 6.1478195488748200e-01 -4.5485737345592288e-08 6.7458084388053396e-01 5.2719384695743758e-09 6.1478195488748200e-01 -4.5485737345592288e-08 
                       -2.4145218612474428e-01 8.9531224062095868e-08 6.2666575435377536e-01 -4.3980863047461805e-08 6.7458084388053396e-01 5.2719384695743758e-09 6.2666575435377536e-01 -4.3980863047461805e-08 
                       -3.0124720057060395e-01 3.8760102385880560e-08 

1.8478500000000000e+00 -2.8936162692727663e-01 4.3339024626721209e-08 6.1478195488749310e-01 -4.9114326140556968e-08 6.7458084388053396e-01 5.6925031998349185e-09 6.1478195488749310e-01 -4.9114326140556968e-08 
                       -2.4145218612476016e-01 9.6673506794869089e-08 6.2666575435378069e-01 -4.7489401683087505e-08 6.7458084388053396e-01 5.6925031998349185e-09 6.2666575435378069e-01 -4.7489401683087505e-08 
                       -3.0124720057060872e-01 4.1852158960432117e-08 

1.9952600000000000e+00 -2.8936162692728851e-01 4.6796342926530656e-08 6.1478195488750709e-01 -5.3032362137228150e-08 6.7458084388053574e-01 6.1466157613249541e-09 6.1478195488750709e-01 -5.3032362137228150e-08 
                       -2.4145218612477826e-01 1.0438551893695966e-07 6.2666575435378735e-01 -5.1277811295387249e-08 6.7458084388053574e-01 6.1466157613249541e-09 6.2666575435378735e-01 -5.1277811295387249e-08 
                       -3.0124720057061360e-01 4.5190864349086981e-08 

2.1544300000000001e+00 -2.8936162692729983e-01 5.0529477407118761e-08 6.1478195488752574e-01 -5.7262969216781547e-08 6.7458084388053963e-01 6.6369562837123169e-09 6.1478195488752574e-01 -5.7262969216781547e-08 
                       -2.4145218612479624e-01 1.1271277606092780e-07 6.2666575435379801e-01 -5.5368450722796614e-08 6.7458084388053963e-01 6.6369562837123169e-09 6.2666575435379801e-01 -5.5368450722796614e-08 
                       -3.0124720057061627e-01 4.8795923277982020e-08 

2.3263099999999999e+00 -2.8936162692731537e-01 5.4560709137510569e-08 6.1478195488754250e-01 -6.1831397594173208e-08 6.7458084388054174e-01 7.1664513455347767e-09 6.1478195488754250e-01 -6.1831397594173208e-08 
                       -2.4145218612470143e-01 1.2170497907961106e-07 6.2666575435379901e-01 -5.9785734788756198e-08 6.7458084388054174e-01 7.1664513455347767e-09 6.2666575435379901e-01 -5.9785734788756198e-08 
                       -3.0124720057062193e-01 5.2688852402206364e-08 

2.5118900000000002e+00 -2.8936162692733469e-01 5.8913257336971252e-08 6.1478195488738818e-01 -6.6763960651145158e-08 6.7458084388054751e-01 7.7381507496049688e-09 6.1478195488738818e-01 -6.6763960651145158e-08 
                       -2.4145218612471209e-01 1.3141392157548905e-07 6.2666575435385286e-01 -6.4555106309543372e-08 6.7458084388054751e-01 7.7381507496049688e-09 6.2666575435385286e-01 -6.4555106309543372e-08 
                       -3.0124720057064280e-01 5.6892074341219210e-08 

2.7122700000000002e+00 -2.8936162692732825e-01 6.3612921137888526e-08 6.1478195488741305e-01 -7.2089895479332618e-08 6.7458084388046824e-01 8.3554431661388058e-09 6.1478195488741305e-01 -7.2089895479332618e-08 
                       -2.4145218612474528e-01 1.4189715197397717e-07 6.2666575435386662e-01 -6.9704835080556802e-08 6.7458084388046824e-01 8.3554431661388058e-09 6.2666575435386662e-01 -6.9704835080556802e-08 
                       -3.0124720057041876e-01 6.1430503116051891e-08 

2.9286400000000001e+00 -2.8936162692752576e-01 6.8687610512332246e-08 6.1478195488744558e-01 -7.7840831295315295e-08 6.7458084388072737e-01 9.0219945181692732e-09 6.1478195488744558e-01 -7.7840831295315295e-08 
                       -2.4145218612478792e-01 1.5321692720777505e-07 6.2666575435386052e-01 -7.5265503880526249e-08 6.7458084388072737e-01 9.0219945181692732e-09 6.2666575435386052e-01 -7.5265503880526249e-08 
                       -3.0124720057057242e-01 6.6331091170048137e-08 

3.1622800000000000e+00 -2.8936162692755718e-01 7.4167346267036179e-08 6.1478195488747889e-01 -8.4050789441241000e-08 6.7458084388072859e-01 9.7417479871193499e-09 6.1478195488747889e-01 -8.4050789441241000e-08 
                       -2.4145218612483421e-01 1.6544021271690844e-07 6.2666575435387584e-01 -8.1270008472006028e-08 6.7458084388072859e-01 9.7417479871193499e-09 6.2666575435387584e-01 -8.1270008472006028e-08 
                       -3.0124720057058640e-01 7.1622829362911154e-08 

3.4145500000000002e+00 -2.8936162692759226e-01 8.0084025512230525e-08 6.1478195488752030e-01 -9.0755917593455144e-08 6.7458084388073269e-01 1.0518893200291553e-08 6.1478195488752030e-01 -9.0755917593455144e-08 
                       -2.4145218612488539e-01 1.7863815928183008e-07 6.2666575435389626e-01 -8.7753300602239428e-08 6.7458084388073269e-01 1.0518893200291553e-08 6.2666575435389626e-01 -8.7753300602239428e-08 
                       -3.0124720057060017e-01 7.7336520485640840e-08 

3.6869499999999999e+00 -2.8936162692763956e-01 8.6472828883237512e-08 6.1478195488756182e-01 -9.7996084512463999e-08 6.7458084388073036e-01 1.1358051071115815e-08 6.1478195488756182e-01 -9.7996084512463999e-08 
                       -2.4145218612495178e-01 1.9288924202766434e-07 6.2666575435391347e-01 -9.4753929992548532e-08 6.7458084388073036e-01 1.1358051071115815e-08 6.2666575435391347e-01 -9.4753929992548532e-08 
                       -3.0124720057062315e-01 8.3506138204125469e-08 

3.9810699999999999e+00 -2.8936162692769374e-01 9.3371047853531312e-08 6.1478195488766929e-01 -1.0581355108499625e-07 6.7458084388073025e-01 1.2264119767798618e-08 6.1478195488766929e-01 -1.0581355108499625e-07 
                       -2.4145218612490871e-01 2.0827664458726945e-07 6.2666575435376171e-01 -1.0231275934691179e-07 6.7458084388073025e-01 1.2264119767798618e-08 6.2666575435376171e-01 -1.0231275934691179e-07 
                       -3.0124720057062393e-01 9.0167694603985703e-08 

4.2986599999999999e+00 -2.8936162692775302e-01 1.0081972649782046e-07 6.1478195488773069e-01 -1.1425483086426997e-07 6.7458084388073225e-01 1.3242490355850040e-08 6.1478195488773069e-01 -1.1425483086426997e-07 
                       -2.4145218612499408e-01 2.2489192127340334e-07 6.2666575435378968e-01 -1.1047476334132723e-07 6.7458084388073225e-01 1.3242490355850040e-08 6.2666575435378968e-01 -1.1047476334132723e-07 
                       -3.0124720057065013e-01 9.7360825629066218e-08 

4.6415899999999999e+00 -2.8936162692758427e-01 1.0886272333981751e-07 6.1478195488778187e-01 -1.2336962690540958e-07 6.7458084388065986e-01 1.4298923574599331e-08 6.1478195488778187e-01 -1.2336962690540958e-07 
                       -2.4145218612509645e-01 2.4283290440909702e-07 6.2666575435382388e-01 -1.1928800062778122e-07 6.7458084388065986e-01 1.4298923574599331e-08 6.2666575435382388e-01 -1.1928800062778122e-07 
                       -3.0124720057066368e-01 1.0512788511575387e-07 

5.0118700000000000e+00 -2.8936162692765566e-01 1.1754718043348968e-07 6.1478195488769449e-01 -1.3321136334734315e-07 6.7458084388067552e-01 1.5439611446926403e-08 6.1478195488769449e-01 -1.3321136334734315e-07 
                       -2.4145218612506869e-01 2.6220475066162779e-07 6.2666575435390448e-01 -1.2880412783311411e-07 6.7458084388067552e-01 1.5439611446926403e-08 6.2666575435390448e-01 -1.2880412783311411e-07 
                       -3.0124720057070320e-01 1.1351439777666434e-07 

5.4116999999999997e+00 -2.8936162692772716e-01 1.2692469604264251e-07 6.1478195488778542e-01 -1.4383851437325995e-07 6.7458084388059125e-01 1.6671331313663990e-08 6.1478195488778542e-01 -1.4383851437325995e-07 
                       -2.4145218612520969e-01 2.8312255688242888e-07 6.2666575435394489e-01 -1.3907968454816459e-07 6.7458084388059125e-01 1.6671331313663990e-08 6.2666575435394489e-01 -1.3907968454816459e-07 
                       -3.0124720057051835e-01 1.2257019165398061e-07 

5.8434100000000004e+00 -2.8936162692783696e-01 1.3704991742114948e-07 6.1478195488795639e-01 -1.5531300945788588e-07 6.7458084388059603e-01 1.8001260992394171e-08 6.1478195488795639e-01 -1.5531300945788588e-07 
                       -2.4145218612524888e-01 3.0570822109901482e-07 6.2666575435382399e-01 -1.5017455133977183e-07 6.7458084388059603e-01 1.8001260992394171e-08 6.2666575435382399e-01 -1.5017455133977183e-07 
                       -3.0124720057054133e-01 1.3234803917675499e-07 

6.3095699999999999e+00 -2.8936162692773082e-01 1.4798312072295085e-07 6.1478195488806475e-01 -1.6770315707642568e-07 6.7458084388052209e-01 1.9437317649169785e-08 6.1478195488806475e-01 -1.6770315707642568e-07 
                       -2.4145218612543873e-01 3.3009619735941471e-07 6.2666575435388228e-01 -1.6215477673155432e-07 6.7458084388052209e-01 1.9437317649169785e-08 6.2666575435388228e-01 -1.6215477673155432e-07 
                       -3.0124720057058518e-01 1.4290614855879897e-07 

6.8129200000000001e+00 -2.8936162692787537e-01 1.5978856924438550e-07 6.1478195488804366e-01 -1.8108178416557143e-07 6.7458084388053485e-01 2.0987942151001811e-08 6.1478195488804366e-01 -1.8108178416557143e-07 
                       -2.4145218612551378e-01 3.5642983355868520e-07 6.2666575435399086e-01 -1.7509077821402239e-07 6.7458084388053485e-01 2.0987942151001811e-08 6.2666575435399086e-01 -1.7509077821402239e-07 
                       -3.0124720057065979e-01 1.5430657836335700e-07 

7.3564200000000000e+00 -2.8936162692802625e-01 1.7253568610408765e-07 6.1478195488827547e-01 -1.9552756508092475e-07 6.7458084388045525e-01 2.2662253102512678e-08 6.1478195488827547e-01 -1.9552756508092475e-07 
                       -2.4145218612564989e-01 3.8486398727864073e-07 6.2666575435389715e-01 -1.8905862723640575e-07 6.7458084388045525e-01 2.2662253102512678e-08 6.2666575435389715e-01 -1.8905862723640575e-07 
                       -3.0124720057048360e-01 1.6661636995563496e-07 

7.9432799999999997e+00 -2.8936162692798284e-01 1.8629975786111930e-07 6.1478195488829301e-01 -2.1112581896764010e-07 6.7458084388039963e-01 2.4470139256710733e-08 6.1478195488829301e-01 -2.1112581896764010e-07 
                       -2.4145218612580133e-01 4.1556659528642529e-07 6.2666575435403604e-01 -2.0414082020430761e-07 6.7458084388039963e-01 2.4470139256710733e-08 6.2666575435403604e-01 -2.0414082020430761e-07 
                       -3.0124720057056087e-01 1.7990822698349985e-07 

8.5769599999999997e+00 -2.8936162692819312e-01 2.0116193451704295e-07 6.1478195488859133e-01 -2.2796850977049430e-07 6.7458084388032402e-01 2.6422259521339710e-08 6.1478195488859133e-01 -2.2796850977049430e-07 
                       -2.4145218612602537e-01 4.4871867353921357e-07 6.2666575435397354e-01 -2.2042627847242772e-07 6.7458084388032402e-01 2.6422259521339710e-08 6.2666575435397354e-01 -2.2042627847242772e-07 
                       -3.0124720057041010e-01 1.9426051536684903e-07 

9.2611899999999991e+00 -2.8936162692823386e-01 2.1720969858183184e-07 6.1478195488867193e-01 -2.4615477780356071e-07 6.7458084388025985e-01 2.8530104566980732e-08 6.1478195488867193e-01 -2.4615477780356071e-07 
                       -2.4145218612617114e-01 4.8451536351374328e-07 6.2666575435412919e-01 -2.3801086235052770e-07 6.7458084388025985e-01 2.8530104566980732e-08 6.2666575435412919e-01 -2.3801086235052770e-07 
                       -3.0124720057053034e-01 2.0975771629112037e-07 

1.0000000000000000e+01 -2.8936162692829115e-01 2.3453756869718578e-07 6.1478195488886189e-01 -2.6579173714036654e-07 6.7458084388011730e-01 3.0806089249249659e-08 6.1478195488886189e-01 -2.6579173714036654e-07 
                       -2.4145218612650277e-01 5.2316750171511930e-07 6.2666575435415162e-01 -2.5699814208830119e-07 6.7458084388011730e-01 3.0806089249249659e-08 6.2666575435415162e-01 -2.5699814208830119e-07 
                       -3.0124720057041365e-01 2.2649110566850730e-07 

1.0797800000000001e+01 -2.8936162692863754e-01 2.5324897593451521e-07 6.1478195488912590e-01 -2.8699660193680321e-07 6.7458084388005268e-01 3.3263799051340928e-08 6.1478195488912590e-01 -2.8699660193680321e-07 
                       -2.4145218612678832e-01 5.6490580501168225e-07 6.2666575435419081e-01 -2.7750145386665533e-07 6.7458084388005268e-01 3.3263799051340928e-08 6.2666575435419081e-01 -2.7750145386665533e-07 
                       -3.0124720057033449e-01 2.4456056607896851e-07 

1.1659100000000000e+01 -2.8936162692880596e-01 2.7344969673240404e-07 6.1478195488943665e-01 -3.0988924426626464e-07 6.7458084387991823e-01 3.5917127521871214e-08 6.1478195488943665e-01 -3.0988924426626464e-07 
                       -2.4145218612716290e-01 6.0996622194739730e-07 6.2666575435426364e-01 -2.9963670384840134e-07 6.7458084387991823e-01 3.5917127521871214e-08 6.2666575435426364e-01 -2.9963670384840134e-07 
                       -3.0124720057026311e-01 2.6406824501001875e-07 

1.2589300000000000e+01 -2.8936162692880574e-01 2.9526638137848658e-07 6.1478195488980192e-01 -3.3461319166702525e-07 6.7458084387971406e-01 3.8782709949491337e-08 6.1478195488980192e-01 -3.3461319166702525e-07 
                       -2.4145218612752384e-01 6.5863126297417507e-07 6.2666575435436511e-01 -3.2354267103028360e-07 6.7458084387971406e-01 3.8782709949491337e-08 6.2666575435436511e-01 -3.2354267103028360e-07 
                       -3.0124720057020526e-01 2.8513644765950726e-07 

1.3593600000000000e+01 -2.8936162692930234e-01 3.1882098941863950e-07 6.1478195489015841e-01 -3.6130665584514368e-07 6.7458084387984663e-01 4.1876565493565233e-08 6.1478195489015841e-01 -3.6130665584514368e-07 
                       -2.4145218612799269e-01 7.1117297519366019e-07 6.2666575435436156e-01 -3.4935299444547352e-07 6.7458084387984663e-01 4.1876565493565233e-08 6.2666575435436156e-01 -3.4935299444547352e-07 
                       -3.0124720057033405e-01 3.0788294940582358e-07 

1.4678000000000001e+01 -2.8936162692972844e-01 3.4425424338486209e-07 6.1478195489055099e-01 -3.9012911184123227e-07 6.7458084387972173e-01 4.5217177816825377e-08 6.1478195489055099e-01 -3.9012911184123227e-07 
                       -2.4145218612860220e-01 7.6790525910881155e-07 6.2666575435458671e-01 -3.7722187298250708e-07 6.7458084387972173e-01 4.5217177816825377e-08 6.2666575435458671e-01 -3.7722187298250708e-07 
                       -3.0124720057039167e-01 3.3244364490773018e-07 

1.5848900000000000e+01 -2.8936162693000167e-01 3.7171624732094707e-07 6.1478195489110055e-01 -4.2125066637042188e-07 6.7458084387944728e-01 4.8824262817420449e-08 6.1478195489110055e-01 -4.2125066637042188e-07 
                       -2.4145218612925889e-01 8.2916294192271288e-07 6.2666575435469762e-01 -4.0731378545029164e-07 6.7458084387944728e-01 4.8824262817420449e-08 6.2666575435469762e-01 -4.0731378545029164e-07 
                       -3.0124720057022369e-01 3.5896348847061657e-07 

1.7113299999999999e+01 -2.8936162693040601e-01 4.0137117753135926e-07 6.1478195489178855e-01 -4.5485737365019989e-07 6.7458084387918016e-01 5.2719384754048159e-08 6.1478195489178855e-01 -4.5485737365019989e-07 
                       -2.4145218612998731e-01 8.9531224088904574e-07 6.2666575435486560e-01 -4.3980863054958025e-07 6.7458084387918016e-01 5.2719384754048159e-08 6.2666575435486560e-01 -4.3980863054958025e-07 
                       -3.0124720057011189e-01 3.8760102387309902e-07 

1.8478500000000000e+01 -2.8936162693090028e-01 4.3339024644378082e-07 6.1478195489250387e-01 -4.9114326165074435e-07 6.7458084387910544e-01 5.6925032069084430e-08 6.1478195489250387e-01 -4.9114326165074435e-07 
                       -2.4145218613093078e-01 9.6673506828583311e-07 6.2666575435496585e-01 -4.7489401692391939e-07 6.7458084387910544e-01 5.6925032069084430e-08 6.2666575435496585e-01 -4.7489401692391939e-07 
                       -3.0124720057018428e-01 4.1852158962503658e-07 

1.9952600000000000e+01 -2.8936162693138501e-01 4.6796342948331363e-07 6.1478195489339282e-01 -5.3032362168119200e-07 6.7458084387868933e-01 6.1466157706235018e-08 6.1478195489339282e-01 -5.3032362168119200e-07 
                       -2.4145218613202024e-01 1.0438551897947823e-06 6.2666575435515870e-01 -5.1277811307153342e-07 6.7458084387868933e-01 6.1466157706235018e-08 6.2666575435515870e-01 -5.1277811307153342e-07 
                       -3.0124720056996890e-01 4.5190864351312449e-07 

2.1544300000000000e+01 -2.8936162693224110e-01 5.0529477435086979e-07 6.1478195489433285e-01 -5.7262969255558284e-07 6.7458084387855233e-01 6.6369562949971410e-08 6.1478195489433285e-01 -5.7262969255558284e-07 
                       -2.4145218613315422e-01 1.1271277611441311e-06 6.2666575435546812e-01 -5.5368450737648286e-07 6.7458084387855233e-01 6.6369562949971410e-08 6.2666575435546812e-01 -5.5368450737648286e-07 
                       -3.0124720056999088e-01 4.8795923281163285e-07 

2.3263100000000001e+01 -2.8936162693292311e-01 5.4560709172037411e-07 6.1478195489555099e-01 -6.1831397643098895e-07 6.7458084387799644e-01 7.1664513603654978e-08 6.1478195489555099e-01 -6.1831397643098895e-07 
                       -2.4145218613465713e-01 1.2170497914710874e-06 6.2666575435573824e-01 -5.9785734807537058e-07 6.7458084387799644e-01 7.1664513603654978e-08 6.2666575435573824e-01 -5.9785734807537058e-07 
                       -3.0124720056972110e-01 5.2688852405648108e-07 

2.5118900000000000e+01 -2.8936162693380463e-01 5.8913257380500264e-07 6.1478195489694842e-01 -6.6763960713118313e-07 6.7458084387766004e-01 7.7381507681012620e-08 6.1478195489694842e-01 -6.6763960713118313e-07 
                       -2.4145218613630826e-01 1.3141392166054532e-06 6.2666575435600702e-01 -6.4555106332895737e-07 6.7458084387766004e-01 7.7381507681012620e-08 6.2666575435600702e-01 -6.4555106332895737e-07 
                       -3.0124720056967069e-01 5.6892074345777444e-07 

2.7122699999999998e+01 -2.8936162693483813e-01 6.3612921192392566e-07 6.1478195489837750e-01 -7.2089895557024892e-07 6.7458084387699002e-01 8.3554431895999826e-08 6.1478195489837750e-01 -7.2089895557024892e-07 
                       -2.4145218613818031e-01 1.4189715208098352e-06 6.2666575435634797e-01 -6.9704835109990861e-07 6.7458084387699002e-01 8.3554431895999826e-08 6.2666575435634797e-01 -6.9704835109990861e-07 
                       -3.0124720056940890e-01 6.1430503121878980e-07 

2.9286400000000000e+01 -2.8936162693619560e-01 6.8687610580376161e-07 6.1478195490019305e-01 -7.7840831392913438e-07 6.7458084387651684e-01 9.0219945480613518e-08 6.1478195490019305e-01 -7.7840831392913438e-07 
                       -2.4145218614050401e-01 1.5321692734233466e-06 6.2666575435684757e-01 -7.5265503917851883e-07 6.7458084387651684e-01 9.0219945480613518e-08 6.2666575435684757e-01 -7.5265503917851883e-07 
                       -3.0124720056944487e-01 6.6331091177238345e-07 

3.1622800000000002e+01 -2.8936162693770950e-01 7.4167346352848081e-07 6.1478195490240062e-01 -8.4050789564418570e-07 6.7458084387583295e-01 9.7417480247764336e-08 6.1478195490240062e-01 -8.4050789564418570e-07 
                       -2.4145218614311015e-01 1.6544021288642320e-06 6.2666575435726135e-01 -8.1270008518801766e-07 6.7458084387583295e-01 9.7417480247764336e-08 6.2666575435726135e-01 -8.1270008518801766e-07 
                       -3.0124720056915744e-01 7.1622829371681270e-07 

3.4145499999999998e+01 -2.8936162693925560e-01 8.0084025619591400e-07 6.1478195490492982e-01 -9.0755917748225952e-07 6.7458084387493489e-01 1.0518893248164998e-07 6.1478195490492982e-01 -9.0755917748225952e-07 
                       -2.4145218614611774e-01 1.7863815949517852e-06 6.2666575435794469e-01 -8.7753300661357346e-07 6.7458084387493489e-01 1.0518893248164998e-07 6.2666575435794469e-01 -8.7753300661357346e-07 
                       -3.0124720056885557e-01 7.7336520496415353e-07 

3.6869500000000002e+01 -2.8936162694115275e-01 8.6472829018052673e-07 6.1478195490790677e-01 -9.7996084707667988e-07 6.7458084387391870e-01 1.1358051131686294e-07 6.1478195490790677e-01 -9.7996084707667988e-07 
                       -2.4145218614974895e-01 1.9288924229636767e-06 6.2666575435850391e-01 -9.4753930066691825e-07 6.7458084387391870e-01 1.1358051131686294e-07 6.2666575435850391e-01 -9.4753930066691825e-07 
                       -3.0124720056852505e-01 8.3506138217398496e-07 

3.9810699999999997e+01 -2.8936162694365541e-01 9.3371048024442952e-07 6.1478195491130483e-01 -1.0581355133041596e-06 6.7458084387294892e-01 1.2264119843327138e-07 6.1478195491130483e-01 -1.0581355133041596e-06 
                       -2.4145218615392394e-01 2.0827664492554549e-06 6.2666575435927241e-01 -1.0231275944058753e-06 6.7458084387294892e-01 1.2264119843327138e-07 6.2666575435927241e-01 -1.0231275944058753e-06 
                       -3.0124720056818077e-01 9.0167694621122566e-07 

4.2986600000000003e+01 -2.8936162694624579e-01 1.0081972671237052e-06 6.1478195491510679e-01 -1.1425483117265562e-06 6.7458084387173134e-01 1.3242490450716131e-07 6.1478195491510679e-01 -1.1425483117265562e-06 
                       -2.4145218615866415e-01 2.2489192169884629e-06 6.2666575436021699e-01 -1.1047476345938584e-06 6.7458084387173134e-01 1.3242490450716131e-07 6.2666575436021699e-01 -1.1047476345938584e-06 
                       -3.0124720056789989e-01 9.7360825651050609e-07 

4.6415900000000001e+01 -2.8936162694954448e-01 1.0886272361223511e-06 6.1478195491982035e-01 -1.2336962729431138e-06 6.7458084387029582e-01 1.4298923693033024e-07 6.1478195491982035e-01 -1.2336962729431138e-06 
                       -2.4145218616434960e-01 2.4283290494483463e-06 6.2666575436129457e-01 -1.1928800077612201e-06 6.7458084387029582e-01 1.4298923693033024e-07 6.2666575436129457e-01 -1.1928800077612201e-06 
                       -3.0124720056755261e-01 1.0512788514391256e-06 

5.0118699999999997e+01 -2.8936162695317635e-01 1.1754718077566197e-06 6.1478195492513377e-01 -1.3321136383725700e-06 6.7458084386846551e-01 1.5439611596780984e-07 6.1478195492513377e-01 -1.3321136383725700e-06 
                       -2.4145218617102093e-01 2.6220475133646269e-06 6.2666575436257266e-01 -1.2880412801979516e-06 6.7458084386846551e-01 1.5439611596780984e-07 6.2666575436257266e-01 -1.2880412801979516e-06 
                       -3.0124720056692555e-01 1.1351439781135782e-06 

5.4116999999999997e+01 -2.8936162695728573e-01 1.2692469647256160e-06 6.1478195493137722e-01 -1.4383851498953810e-06 6.7458084386640427e-01 1.6671331502246389e-07 6.1478195493137722e-01 -1.4383851498953810e-06 
                       -2.4145218617863462e-01 2.8312255773182223e-06 6.2666575436403738e-01 -1.3907968478309884e-06 6.7458084386640427e-01 1.6671331502246389e-07 6.2666575436403738e-01 -1.3907968478309884e-06 
                       -3.0124720056623433e-01 1.2257019169826291e-06 

5.8434100000000001e+01 -2.8936162696239265e-01 1.3704991796281888e-06 6.1478195493864718e-01 -1.5531301023286451e-06 6.7458084386402106e-01 1.8001261229823901e-07 6.1478195493864718e-01 -1.5531301023286451e-06 
                       -2.4145218618760034e-01 3.0570822216801265e-06 6.2666575436586658e-01 -1.5017455163653646e-06 6.7458084386402106e-01 1.8001261229823901e-07 6.2666575436586658e-01 -1.5017455163653646e-06 
                       -3.0124720056547538e-01 1.3234803923252650e-06 

6.3095700000000001e+01 -2.8936162696821799e-01 1.4798312140651654e-06 6.1478195494726717e-01 -1.6770315805311595e-06 6.7458084386135753e-01 1.9437317946784806e-07 6.1478195494726717e-01 -1.6770315805311595e-06 
                       -2.4145218619806796e-01 3.3009619870525873e-06 6.2666575436781757e-01 -1.6215477710443509e-06 6.7458084386135753e-01 1.9437317946784806e-07 6.2666575436781757e-01 -1.6215477710443509e-06 
                       -3.0124720056480858e-01 1.4290614862980589e-06 

6.8129199999999997e+01 -2.8936162697482692e-01 1.5978857010269078e-06 6.1478195495719623e-01 -1.8108178539540259e-06 6.7458084385801897e-01 2.0987942527455864e-07 6.1478195495719623e-01 -1.8108178539540259e-06 
                       -2.4145218621030873e-01 3.5642983525365448e-06 6.2666575437014094e-01 -1.7509077868344885e-06 6.7458084385801897e-01 2.0987942527455864e-07 6.2666575437014094e-01 -1.7509077868344885e-06 
                       -3.0124720056377818e-01 1.5430657845137425e-06 

7.3564200000000000e+01 -2.8936162698274570e-01 1.7253568718498184e-06 6.1478195496867483e-01 -1.9552756662803655e-06 6.7458084385427652e-01 2.2662253575403443e-07 6.1478195496867483e-01 -1.9552756662803655e-06 
                       -2.4145218622446019e-01 3.8486398941189005e-06 6.2666575437283378e-01 -1.8905862782782437e-06 6.7458084385427652e-01 2.2662253575403443e-07 6.2666575437283378e-01 -1.8905862782782437e-06 
                       -3.0124720056267151e-01 1.6661637006783297e-06 

7.9432800000000000e+01 -2.8936162699185419e-01 1.8629975922201586e-06 6.1478195498231591e-01 -2.1112582091729831e-06 6.7458084384982619e-01 2.4470139853111396e-07 6.1478195498231591e-01 -2.1112582091729831e-06 
                       -2.4145218624102160e-01 4.1556659797264436e-06 6.2666575437587679e-01 -2.0414082094752758e-06 6.7458084384982619e-01 2.4470139853111396e-07 6.2666575437587679e-01 -2.0414082094752758e-06 
                       -3.0124720056113630e-01 1.7990822712274987e-06 

8.5769599999999997e+01 -2.8936162700265511e-01 2.0116193623054952e-06 6.1478195499790766e-01 -2.2796851222282034e-06 6.7458084384478478e-01 2.6422260270733051e-07 6.1478195499790766e-01 -2.2796851222282034e-06 
                       -2.4145218626037113e-01 4.4871867692003527e-06 6.2666575437965399e-01 -2.2042627940955247e-06 6.7458084384478478e-01 2.6422260270733051e-07 6.2666575437965399e-01 -2.2042627940955247e-06 
                       -3.0124720055966314e-01 1.9426051554412101e-06 

9.2611900000000006e+01 -2.8936162701518087e-01 2.1720970074053338e-06 6.1478195501632549e-01 -2.4615478089299455e-06 6.7458084383885220e-01 2.8530105510061371e-07 6.1478195501632549e-01 -2.4615478089299455e-06 
                       -2.4145218628286502e-01 4.8451536777071651e-06 6.2666575438385796e-01 -2.3801086352890445e-06 6.7458084383885220e-01 2.8530105510061371e-07 6.2666575438385796e-01 -2.3801086352890445e-06 
                       -3.0124720055791798e-01 2.0975771651373634e-06 

1.0000000000000000e+02 -2.8936162702970636e-01 2.3453757141637690e-06 6.1478195503767674e-01 -2.6579174102910209e-06 6.7458084383201911e-01 3.0806090434787063e-07 6.1478195503767674e-01 -2.6579174102910209e-06 
                       -2.4145218630902976e-01 5.2316750707397467e-06 6.2666575438889593e-01 -2.5699814357184733e-06 6.7458084383201911e-01 3.0806090434787063e-07 6.2666575438889593e-01 -2.5699814357184733e-06 