! Touchstone file exported from Ansys Full-Wave Spice
! Project: 0000_PSI_S-parameter_Sweep
!  Design: unknown
! Creation time: Tue Apr 22 09:49:36 2025
! Notes: ! Touchstone(R) file created by SIwave 2025 R1
!      : ! Touchstone(R) file created on Tue Apr 22 09:49:36 2025

# HZ S RI R 0.1
! Modal data exported
! Port[1] = PORT_5_L29_SOC_VNPU_Group_U43_GND_Group
! Port[2] = PORT_6_U1_SOC_VNPU_Group_U1_GRP_1_1_GND
! Port[3] = SOC_VNPU_C483_1
! Port[4] = SOC_VNPU_C484_1
! Port[5] = SOC_VNPU_C486_1
! Port[6] = SOC_VNPU_C487_1
! Port[7] = SOC_VNPU_C488_1
! Port[8] = SOC_VNPU_C489_1
! Port[9] = SOC_VNPU_C556_1
! Port[10] = SOC_VNPU_C556_3
! Port[11] = SOC_VNPU_C558_1
! Port[12] = SOC_VNPU_C558_3
! Port[13] = SOC_VNPU_C647_1

0.0000000000000000e+00 -8.3646310175714167e-01 0.0000000000000000e+00 1.5370517769228542e-01 0.0000000000000000e+00 1.5281741437457852e-01 0.0000000000000000e+00 1.5407379823964659e-01 0.0000000000000000e+00 
                       1.5435566020264110e-01 0.0000000000000000e+00 1.5273694895134587e-01 0.0000000000000000e+00 1.5301326020636302e-01 0.0000000000000000e+00 1.5287916320830267e-01 0.0000000000000000e+00 
                       1.5118891028868608e-01 0.0000000000000000e+00 1.5167522397692695e-01 0.0000000000000000e+00 1.5175564899414959e-01 0.0000000000000000e+00 1.5164213613998812e-01 0.0000000000000000e+00 
                       1.5661975948205492e-01 0.0000000000000000e+00 1.5370517769228542e-01 0.0000000000000000e+00 -8.3326979276275548e-01 0.0000000000000000e+00 1.5357631289087681e-01 0.0000000000000000e+00 
                       1.5281049480197106e-01 0.0000000000000000e+00 1.5267582127830071e-01 0.0000000000000000e+00 1.5370555505721806e-01 0.0000000000000000e+00 1.5294997520055381e-01 0.0000000000000000e+00 
                       1.5315622850010019e-01 0.0000000000000000e+00 1.5183452494998353e-01 0.0000000000000000e+00 1.5180579272846129e-01 0.0000000000000000e+00 1.5193168350975611e-01 0.0000000000000000e+00 
                       1.5144172209816420e-01 0.0000000000000000e+00 1.5367650405491051e-01 0.0000000000000000e+00 1.5281741437457852e-01 0.0000000000000000e+00 1.5357631289087681e-01 0.0000000000000000e+00 
                       -8.3218039259193366e-01 0.0000000000000000e+00 1.5225117111813796e-01 0.0000000000000000e+00 1.5147175500880916e-01 0.0000000000000000e+00 1.5484545639988700e-01 0.0000000000000000e+00 
                       1.5555196199970717e-01 0.0000000000000000e+00 1.5371739729875977e-01 0.0000000000000000e+00 1.5353757765901155e-01 0.0000000000000000e+00 1.5094464179361358e-01 0.0000000000000000e+00 
                       1.5061805713806342e-01 0.0000000000000000e+00 1.4992420338082457e-01 0.0000000000000000e+00 1.5292444352949019e-01 0.0000000000000000e+00 1.5407379823964659e-01 0.0000000000000000e+00 
                       1.5281049480197106e-01 0.0000000000000000e+00 1.5225117111813796e-01 0.0000000000000000e+00 -8.3105717340435081e-01 0.0000000000000000e+00 1.5334488490552317e-01 0.0000000000000000e+00 
                       1.5191929038733148e-01 0.0000000000000000e+00 1.5262426885823660e-01 0.0000000000000000e+00 1.5210040648479423e-01 0.0000000000000000e+00 1.5162201259466629e-01 0.0000000000000000e+00 
                       1.5355494729166175e-01 0.0000000000000000e+00 1.5277198405449804e-01 0.0000000000000000e+00 1.5093209880098915e-01 0.0000000000000000e+00 1.5305181586672018e-01 0.0000000000000000e+00 
                       1.5435566020264110e-01 0.0000000000000000e+00 1.5267582127830071e-01 0.0000000000000000e+00 1.5147175500880916e-01 0.0000000000000000e+00 1.5334488490552317e-01 0.0000000000000000e+00 
                       -8.2763458137875656e-01 0.0000000000000000e+00 1.5123570589524754e-01 0.0000000000000000e+00 1.5144782401811629e-01 0.0000000000000000e+00 1.5121648352187655e-01 0.0000000000000000e+00 
                       1.5047602854507447e-01 0.0000000000000000e+00 1.5122787165218055e-01 0.0000000000000000e+00 1.5236766951593639e-01 0.0000000000000000e+00 1.5514371629638857e-01 0.0000000000000000e+00 
                       1.5267116053848725e-01 0.0000000000000000e+00 1.5273694895134587e-01 0.0000000000000000e+00 1.5370555505721806e-01 0.0000000000000000e+00 1.5484545639988700e-01 0.0000000000000000e+00 
                       1.5191929038733148e-01 0.0000000000000000e+00 1.5123570589524754e-01 0.0000000000000000e+00 -8.3050743324196119e-01 0.0000000000000000e+00 1.5369303171922916e-01 0.0000000000000000e+00 
                       1.5744842129751141e-01 0.0000000000000000e+00 1.5095929543976605e-01 0.0000000000000000e+00 1.5043039041898615e-01 0.0000000000000000e+00 1.5016186732237274e-01 0.0000000000000000e+00 
                       1.4958023678482010e-01 0.0000000000000000e+00 1.5379123356807214e-01 0.0000000000000000e+00 1.5301326020636302e-01 0.0000000000000000e+00 1.5294997520055381e-01 0.0000000000000000e+00 
                       1.5555196199970717e-01 0.0000000000000000e+00 1.5262426885823660e-01 0.0000000000000000e+00 1.5144782401811629e-01 0.0000000000000000e+00 1.5369303171922916e-01 0.0000000000000000e+00 
                       -8.3014025636759337e-01 0.0000000000000000e+00 1.5447055466106485e-01 0.0000000000000000e+00 1.5268381980239931e-01 0.0000000000000000e+00 1.5055958798233243e-01 0.0000000000000000e+00 
                       1.5027435183627635e-01 0.0000000000000000e+00 1.4960084013387159e-01 0.0000000000000000e+00 1.5327077994926888e-01 0.0000000000000000e+00 1.5287916320830267e-01 0.0000000000000000e+00 
                       1.5315622850010019e-01 0.0000000000000000e+00 1.5371739729875977e-01 0.0000000000000000e+00 1.5210040648479423e-01 0.0000000000000000e+00 1.5121648352187655e-01 0.0000000000000000e+00 
                       1.5744842129751141e-01 0.0000000000000000e+00 1.5447055466106485e-01 0.0000000000000000e+00 -8.2948398766131293e-01 0.0000000000000000e+00 1.5065594712237562e-01 0.0000000000000000e+00 
                       1.5019604000169268e-01 0.0000000000000000e+00 1.4994495269879268e-01 0.0000000000000000e+00 1.4937174964946581e-01 0.0000000000000000e+00 1.5432664321640344e-01 0.0000000000000000e+00 
                       1.5118891028868608e-01 0.0000000000000000e+00 1.5183452494998353e-01 0.0000000000000000e+00 1.5353757765901155e-01 0.0000000000000000e+00 1.5162201259466629e-01 0.0000000000000000e+00 
                       1.5047602854507447e-01 0.0000000000000000e+00 1.5095929543976605e-01 0.0000000000000000e+00 1.5268381980239931e-01 0.0000000000000000e+00 1.5065594712237562e-01 0.0000000000000000e+00 
                       -8.2762902294933893e-01 0.0000000000000000e+00 1.6421789108112750e-01 0.0000000000000000e+00 1.4992795557781663e-01 0.0000000000000000e+00 1.4925537480414253e-01 0.0000000000000000e+00 
                       1.5126968508411562e-01 0.0000000000000000e+00 1.5167522397692695e-01 0.0000000000000000e+00 1.5180579272846129e-01 0.0000000000000000e+00 1.5094464179361358e-01 0.0000000000000000e+00 
                       1.5355494729166175e-01 0.0000000000000000e+00 1.5122787165218055e-01 0.0000000000000000e+00 1.5043039041898615e-01 0.0000000000000000e+00 1.5055958798233243e-01 0.0000000000000000e+00 
                       1.5019604000169268e-01 0.0000000000000000e+00 1.6421789108112750e-01 0.0000000000000000e+00 -8.2929955650552301e-01 0.0000000000000000e+00 1.5356126575826440e-01 0.0000000000000000e+00 
                       1.5015622385337304e-01 0.0000000000000000e+00 1.5096967996672855e-01 0.0000000000000000e+00 1.5175564899414959e-01 0.0000000000000000e+00 1.5193168350975611e-01 0.0000000000000000e+00 
                       1.5061805713806342e-01 0.0000000000000000e+00 1.5277198405449804e-01 0.0000000000000000e+00 1.5236766951593639e-01 0.0000000000000000e+00 1.5016186732237274e-01 0.0000000000000000e+00 
                       1.5027435183627635e-01 0.0000000000000000e+00 1.4994495269879268e-01 0.0000000000000000e+00 1.4992795557781663e-01 0.0000000000000000e+00 1.5356126575826440e-01 0.0000000000000000e+00 
                       -8.2902691929593264e-01 0.0000000000000000e+00 1.6467401496523476e-01 0.0000000000000000e+00 1.5103746792459705e-01 0.0000000000000000e+00 1.5164213613998812e-01 0.0000000000000000e+00 
                       1.5144172209816420e-01 0.0000000000000000e+00 1.4992420338082457e-01 0.0000000000000000e+00 1.5093209880098915e-01 0.0000000000000000e+00 1.5514371629638857e-01 0.0000000000000000e+00 
                       1.4958023678482010e-01 0.0000000000000000e+00 1.4960084013387159e-01 0.0000000000000000e+00 1.4937174964946581e-01 0.0000000000000000e+00 1.4925537480414253e-01 0.0000000000000000e+00 
                       1.5015622385337304e-01 0.0000000000000000e+00 1.6467401496523476e-01 0.0000000000000000e+00 -8.2221446938736920e-01 0.0000000000000000e+00 1.5049215247993331e-01 0.0000000000000000e+00 
                       1.5661975948205492e-01 0.0000000000000000e+00 1.5367650405491051e-01 0.0000000000000000e+00 1.5292444352949019e-01 0.0000000000000000e+00 1.5305181586672018e-01 0.0000000000000000e+00 
                       1.5267116053848725e-01 0.0000000000000000e+00 1.5379123356807214e-01 0.0000000000000000e+00 1.5327077994926888e-01 0.0000000000000000e+00 1.5432664321640344e-01 0.0000000000000000e+00 
                       1.5126968508411562e-01 0.0000000000000000e+00 1.5096967996672855e-01 0.0000000000000000e+00 1.5103746792459705e-01 0.0000000000000000e+00 1.5049215247993331e-01 0.0000000000000000e+00 
                       -8.3410132566095463e-01 0.0000000000000000e+00 

1.0000000000000000e+00 -8.3646667405606467e-01 1.0345587323133307e-07 1.5370154652721657e-01 -1.8889525338454033e-08 1.5281684364410097e-01 -1.2678418931050048e-08 1.5407331636943342e-01 1.7734619536447989e-09 
                       1.5435466306887527e-01 6.5587845533210170e-10 1.5273674174548627e-01 -1.1138680168884204e-08 1.5301272061289109e-01 -1.0571036739993502e-08 1.5287704212635439e-01 -9.4426905501437511e-09 
                       1.5118994306483177e-01 -6.4870680630484530e-09 1.5167605017626873e-01 -2.1729075448245709e-09 1.5175650544190258e-01 -8.8709480084819733e-09 1.5164219191998851e-01 -8.5319593806406006e-09 
                       1.5661547179826524e-01 -1.7167827949175049e-08 1.5370154652721657e-01 -1.8889525338454033e-08 -8.3327560342231721e-01 3.4308918018827895e-08 1.5357364631151965e-01 -1.1097657475674126e-09 
                       1.5280781759950504e-01 -1.4165767088311997e-09 1.5267238800558094e-01 -4.9297287469719214e-09 1.5370329395568258e-01 6.0922531822251399e-10 1.5294737326469127e-01 -4.5475874485219610e-09 
                       1.5315209400578508e-01 -8.9922544428394395e-10 1.5183324286336608e-01 6.4503566761815074e-09 1.5180440164857270e-01 6.4241754317676777e-09 1.5193034427650826e-01 -9.8917207080110015e-10 
                       1.5143950678490836e-01 -7.3546819398430963e-09 1.5367070680403461e-01 -6.9517733623636251e-09 1.5281684364410097e-01 -1.2678418931050048e-08 1.5357364631151965e-01 -1.1097657475674126e-09 
                       -8.3218048367463415e-01 -2.2381661147819160e-09 1.5225136515296200e-01 -2.3100396272786347e-09 1.5147119378068105e-01 -4.6230475723586817e-09 1.5484599722489817e-01 -4.9782583649205338e-09 
                       1.5555210071631223e-01 -1.1725976935292494e-08 1.5371605739881383e-01 -5.3519940002361388e-09 1.5353953996162398e-01 1.5479684438243725e-08 1.5094632010571365e-01 1.2020834243579146e-08 
                       1.5061962655751504e-01 2.0854376665712598e-08 1.4992488503170601e-01 2.5966376418375467e-09 1.5292164000155151e-01 -5.9938897585919988e-09 1.5407331636943342e-01 1.7734619536447989e-09 
                       1.5280781759950504e-01 -1.4165767088311997e-09 1.5225136515296200e-01 -2.3100396272786347e-09 -8.3105717670523749e-01 5.2023979577975386e-08 1.5334422094373323e-01 -4.6970146243205331e-10 
                       1.5191987916210475e-01 1.4991269876034245e-10 1.5262447484629768e-01 2.0016686016600693e-09 1.5209909249836290e-01 2.3948676487448801e-09 1.5162344380571080e-01 -2.2409250551899080e-08 
                       1.5355630987958263e-01 6.5741400952695293e-09 1.5277352910837047e-01 -5.2808167316318818e-09 1.5093273194947646e-01 -2.6895419843850414e-08 1.5304894109129674e-01 -5.9907614697691482e-09 
                       1.5435466306887527e-01 6.5587845533210170e-10 1.5267238800558094e-01 -4.9297287469719214e-09 1.5147119378068105e-01 -4.6230475723586817e-09 1.5334422094373323e-01 -4.6970146243205331e-10 
                       -8.2763633714030405e-01 -1.1892883143510986e-08 1.5123554112039553e-01 -6.3848651586315765e-09 1.5144729996398384e-01 -5.4327577756812576e-09 1.5121444401868203e-01 -6.6507523145724093e-09 
                       1.5047668975366371e-01 2.7015578164922992e-08 1.5122849049804085e-01 2.1682079068056428e-08 1.5236832293176825e-01 -6.6012523073066584e-09 1.5514348501423036e-01 1.2833917788233425e-08 
                       1.5266758846472583e-01 -1.5325417526540241e-08 1.5273674174548627e-01 -1.1138680168884204e-08 1.5370329395568258e-01 6.0922531822251399e-10 1.5484599722489817e-01 -4.9782583649205338e-09 
                       1.5191987916210475e-01 1.4991269876034245e-10 1.5123554112039553e-01 -6.3848651586315765e-09 -8.3050653080401116e-01 8.9974946503463545e-09 1.5369362283031665e-01 -9.4614326096672996e-09 
                       1.5744758288044572e-01 2.4720729084124920e-09 1.5096141680994310e-01 7.0399656456809413e-09 1.5043231578703667e-01 1.0896126362737572e-08 1.5016379161382595e-01 4.7604795799943903e-09 
                       1.4958127641148269e-01 -6.6392525779841283e-09 1.5378885886473698e-01 3.5542750780578100e-09 1.5301272061289109e-01 -1.0571036739993502e-08 1.5294737326469127e-01 -4.5475874485219610e-09 
                       1.5555210071631223e-01 -1.1725976935292494e-08 1.5262447484629768e-01 2.0016686016600693e-09 1.5144729996398384e-01 -5.4327577756812576e-09 1.5369362283031665e-01 -9.4614326096672996e-09 
                       -8.3014041609874922e-01 -4.1895424685088667e-08 1.5446918834569420e-01 -1.1761501529006987e-08 1.5268607969317760e-01 3.2602226727153806e-08 1.5056143755048990e-01 4.3930451653756485e-08 
                       1.5027600539392169e-01 2.2150390681878789e-08 1.4960160683490842e-01 7.3761267948531400e-10 1.5326796548857269e-01 -6.0849425261600743e-09 1.5287704212635439e-01 -9.4426905501437511e-09 
                       1.5315209400578508e-01 -8.9922544428394395e-10 1.5371605739881383e-01 -5.3519940002361388e-09 1.5209909249836290e-01 2.3948676487448801e-09 1.5121444401868203e-01 -6.6507523145724093e-09 
                       1.5744758288044572e-01 2.4720729084124920e-09 1.5446918834569420e-01 -1.1761501529006987e-08 -8.2948719700351414e-01 3.2302572813647664e-09 1.5065627229900547e-01 7.9219907982753616e-09 
                       1.5019614438856632e-01 1.2857509807946070e-08 1.4994503911592591e-01 4.3191343608094965e-09 1.4937096107845260e-01 -7.4542311720144163e-09 1.5432230780872816e-01 8.3721007882568902e-09 
                       1.5118994306483177e-01 -6.4870680630484530e-09 1.5183324286336608e-01 6.4503566761815074e-09 1.5353953996162398e-01 1.5479684438243725e-08 1.5162344380571080e-01 -2.2409250551899080e-08 
                       1.5047668975366371e-01 2.7015578164922992e-08 1.5096141680994310e-01 7.0399656456809413e-09 1.5268607969317760e-01 3.2602226727153806e-08 1.5065627229900547e-01 7.9219907982753616e-09 
                       -8.2762871452520248e-01 -1.8074929693768105e-07 1.6421919141567987e-01 -2.0444678176379778e-07 1.4993060907093059e-01 1.8144166207482269e-07 1.4925708351478281e-01 1.3699933853206028e-07 
                       1.5126840218829912e-01 -8.7050054218168118e-10 1.5167605017626873e-01 -2.1729075448245709e-09 1.5180440164857270e-01 6.4241754317676777e-09 1.5094632010571365e-01 1.2020834243579146e-08 
                       1.5355630987958263e-01 6.5741400952695293e-09 1.5122849049804085e-01 2.1682079068056428e-08 1.5043231578703667e-01 1.0896126362737572e-08 1.5056143755048990e-01 4.3930451653756485e-08 
                       1.5019614438856632e-01 1.2857509807946070e-08 1.6421919141567987e-01 -2.0444678176379778e-07 -8.2929787117743459e-01 -8.4838856102694503e-08 1.5356406678918250e-01 1.1755840665475030e-07 
                       1.5015805971026769e-01 6.6738624509184286e-08 1.5096821018400283e-01 -7.1955913599722264e-09 1.5175650544190258e-01 -8.8709480084819733e-09 1.5193034427650826e-01 -9.8917207080110015e-10 
                       1.5061962655751504e-01 2.0854376665712598e-08 1.5277352910837047e-01 -5.2808167316318818e-09 1.5236832293176825e-01 -6.6012523073066584e-09 1.5016379161382595e-01 4.7604795799943903e-09 
                       1.5027600539392169e-01 2.2150390681878789e-08 1.4994503911592591e-01 4.3191343608094965e-09 1.4993060907093059e-01 1.8144166207482269e-07 1.5356406678918250e-01 1.1755840665475030e-07 
                       -8.2902447261353340e-01 -1.6454868285680880e-07 1.6467553800704232e-01 -1.5737222481305957e-07 1.5103598925937561e-01 -7.4820509406482030e-09 1.5164219191998851e-01 -8.5319593806406006e-09 
                       1.5143950678490836e-01 -7.3546819398430963e-09 1.4992488503170601e-01 2.5966376418375467e-09 1.5093273194947646e-01 -2.6895419843850414e-08 1.5514348501423036e-01 1.2833917788233425e-08 
                       1.4958127641148269e-01 -6.6392525779841283e-09 1.4960160683490842e-01 7.3761267948531400e-10 1.4937096107845260e-01 -7.4542311720144163e-09 1.4925708351478281e-01 1.3699933853206028e-07 
                       1.5015805971026769e-01 6.6738624509184286e-08 1.6467553800704232e-01 -1.5737222481305957e-07 -8.2221405881253751e-01 1.1588983179418871e-08 1.5048982472200395e-01 -1.7381530327174885e-08 
                       1.5661547179826524e-01 -1.7167827949175049e-08 1.5367070680403461e-01 -6.9517733623636251e-09 1.5292164000155151e-01 -5.9938897585919988e-09 1.5304894109129674e-01 -5.9907614697691482e-09 
                       1.5266758846472583e-01 -1.5325417526540241e-08 1.5378885886473698e-01 3.5542750780578100e-09 1.5326796548857269e-01 -6.0849425261600743e-09 1.5432230780872816e-01 8.3721007882568902e-09 
                       1.5126840218829912e-01 -8.7050054218168118e-10 1.5096821018400283e-01 -7.1955913599722264e-09 1.5103598925937561e-01 -7.4820509406482030e-09 1.5048982472200395e-01 -1.7381530327174885e-08 
                       -8.3410815140376504e-01 7.8418172347900568e-08 

1.1659100000000000e+00 -8.3646667405600039e-01 1.2062023716309931e-07 1.5370154652715842e-01 -2.2023486481326672e-08 1.5281684364409354e-01 -1.4781895411006137e-08 1.5407331636951505e-01 2.0676970303725981e-09 
                       1.5435466306890480e-01 7.6469525438225088e-10 1.5273674174548629e-01 -1.2986698590914244e-08 1.5301272061287918e-01 -1.2324877440396332e-08 1.5287704212635891e-01 -1.1009327334586529e-08 
                       1.5118994306488220e-01 -7.5633375219850773e-09 1.5167605017631333e-01 -2.5334146317043804e-09 1.5175650544187089e-01 -1.0342726985989299e-08 1.5164219191996636e-01 -9.9474967556633516e-09 
                       1.5661547179825447e-01 -2.0016142279609008e-08 1.5370154652715842e-01 -2.2023486481326672e-08 -8.3327560342214912e-01 4.0001110608546431e-08 1.5357364631151879e-01 -1.2938869778856773e-09 
                       1.5280781759952955e-01 -1.6516009456836176e-09 1.5267238800555871e-01 -5.7476200379807241e-09 1.5370329395569154e-01 7.1030189543453181e-10 1.5294737326466520e-01 -5.3020776766112598e-09 
                       1.5315209400578594e-01 -1.0484159328865992e-09 1.5183324286344121e-01 7.5205353551990832e-09 1.5180440164863115e-01 7.4900103811200322e-09 1.5193034427648094e-01 -1.1532856022700571e-09 
                       1.5143950678488097e-01 -8.5748972141963096e-09 1.5367070680399239e-01 -8.1051420749743084e-09 1.5281684364409354e-01 -1.4781895411006137e-08 1.5357364631151879e-01 -1.2938869778856773e-09 
                       -8.3218048367470221e-01 -2.6095002487077869e-09 1.5225136515299756e-01 -2.6932982973066309e-09 1.5147119378067414e-01 -5.3900573903381639e-09 1.5484599722487305e-01 -5.8042012048943332e-09 
                       1.5555210071619543e-01 -1.3671433761113673e-08 1.5371605739878291e-01 -6.2399433193433557e-09 1.5353953996160560e-01 1.8047918893793822e-08 1.5094632010573089e-01 1.4015210860853154e-08 
                       1.5061962655774136e-01 2.4314326295443166e-08 1.4992488503186333e-01 3.0274457922127226e-09 1.5292164000152930e-01 -6.9883360032268819e-09 1.5407331636951505e-01 2.0676970303725981e-09 
                       1.5280781759952955e-01 -1.6516009456836176e-09 1.5225136515299756e-01 -2.6932982973066309e-09 -8.3105717670498191e-01 6.0655278032669173e-08 1.5334422094382483e-01 -5.4762962857768765e-10 
                       1.5191987916215072e-01 1.7478471909660506e-10 1.5262447484635464e-01 2.3337654434542469e-09 1.5209909249841766e-01 2.7922001447387007e-09 1.5162344380564866e-01 -2.6127169305229921e-08 
                       1.5355630987956295e-01 7.6648556850095267e-09 1.5277352910817482e-01 -6.1569570277369637e-09 1.5093273194900200e-01 -3.1357638945054934e-08 1.5304894109132577e-01 -6.9846887005589005e-09 
                       1.5435466306890480e-01 7.6469525438225088e-10 1.5267238800555871e-01 -5.7476200379807241e-09 1.5147119378067414e-01 -5.3900573903381639e-09 1.5334422094382483e-01 -5.4762962857768765e-10 
                       -8.2763633714044715e-01 -1.3866031378307982e-08 1.5123554112038010e-01 -7.4441781320030331e-09 1.5144729996395617e-01 -6.3341066124980223e-09 1.5121444401866407e-01 -7.7541786258932365e-09 
                       1.5047668975398559e-01 3.1497732730484962e-08 1.5122849049829346e-01 2.5279352801879742e-08 1.5236832293159189e-01 -7.6964660626308482e-09 1.5514348501414421e-01 1.4963193100607839e-08 
                       1.5266758846468340e-01 -1.7868057543180742e-08 1.5273674174548629e-01 -1.2986698590914244e-08 1.5370329395569154e-01 7.1030189543453181e-10 1.5484599722487305e-01 -5.8042012048943332e-09 
                       1.5191987916215072e-01 1.7478471909660506e-10 1.5123554112038010e-01 -7.4441781320030331e-09 -8.3050653080402270e-01 1.0490268992589428e-08 1.5369362283024585e-01 -1.1031178887526391e-08 
                       1.5744758288043420e-01 2.8822145296615448e-09 1.5096141681000005e-01 8.2079663506297771e-09 1.5043231578710176e-01 1.2703902691891611e-08 1.5016379161387688e-01 5.5502907510863885e-09 
                       1.4958127641150895e-01 -7.7407709689648678e-09 1.5378885886475557e-01 4.1439648608501944e-09 1.5301272061287918e-01 -1.2324877440396332e-08 1.5294737326466520e-01 -5.3020776766112598e-09 
                       1.5555210071619543e-01 -1.3671433761113673e-08 1.5262447484635464e-01 2.3337654434542469e-09 1.5144729996395617e-01 -6.3341066124980223e-09 1.5369362283024585e-01 -1.1031178887526391e-08 
                       -8.3014041609914802e-01 -4.8846294580987489e-08 1.5446918834560772e-01 -1.3712852240903669e-08 1.5268607969344106e-01 3.8011262162404995e-08 1.5056143755081747e-01 5.1218952885641908e-08 
                       1.5027600539408803e-01 2.5825362002446996e-08 1.4960160683500354e-01 8.5999000262590889e-10 1.5326796548854252e-01 -7.0944953353478707e-09 1.5287704212635891e-01 -1.1009327334586529e-08 
                       1.5315209400578594e-01 -1.0484159328865992e-09 1.5371605739878291e-01 -6.2399433193433557e-09 1.5209909249841766e-01 2.7922001447387007e-09 1.5121444401866407e-01 -7.7541786258932365e-09 
                       1.5744758288043420e-01 2.8822145296615448e-09 1.5446918834560772e-01 -1.3712852240903669e-08 -8.2948719700354334e-01 3.7661892720983587e-09 1.5065627229908315e-01 9.2363282953785100e-09 
                       1.5019614438865397e-01 1.4990699263729338e-08 1.4994503911596879e-01 5.0357219470106150e-09 1.4937096107846884e-01 -8.6909626611910741e-09 1.5432230780876027e-01 9.7611160344338624e-09 
                       1.5118994306488220e-01 -7.5633375219850773e-09 1.5183324286344121e-01 7.5205353551990832e-09 1.5353953996160560e-01 1.8047918893793822e-08 1.5162344380564866e-01 -2.6127169305229921e-08 
                       1.5047668975398559e-01 3.1497732730484962e-08 1.5096141681000005e-01 8.2079663506297771e-09 1.5268607969344106e-01 3.8011262162404995e-08 1.5065627229908315e-01 9.2363282953785100e-09 
                       -8.2762871452848730e-01 -2.1073741263656620e-07 1.6421919141335253e-01 -2.3836654721763726e-07 1.4993060907378208e-01 2.1154464810179679e-07 1.4925708351691916e-01 1.5972889869464951e-07 
                       1.5126840218830612e-01 -1.0149252819168033e-09 1.5167605017631333e-01 -2.5334146317043804e-09 1.5180440164863115e-01 7.4900103811200322e-09 1.5094632010573089e-01 1.4015210860853154e-08 
                       1.5355630987956295e-01 7.6648556850095267e-09 1.5122849049829346e-01 2.5279352801879742e-08 1.5043231578710176e-01 1.2703902691891611e-08 1.5056143755081747e-01 5.1218952885641908e-08 
                       1.5019614438865397e-01 1.4990699263729338e-08 1.6421919141335253e-01 -2.3836654721763726e-07 -8.2929787117902132e-01 -9.8914470642174077e-08 1.5356406679105367e-01 1.3706252181831300e-07 
                       1.5015805971161494e-01 7.7811229640028423e-08 1.5096821018399895e-01 -8.3894119173536740e-09 1.5175650544187089e-01 -1.0342726985989299e-08 1.5193034427648094e-01 -1.1532856022700571e-09 
                       1.5061962655774136e-01 2.4314326295443166e-08 1.5277352910817482e-01 -6.1569570277369637e-09 1.5236832293159189e-01 -7.6964660626308482e-09 1.5016379161387688e-01 5.5502907510863885e-09 
                       1.5027600539408803e-01 2.5825362002446996e-08 1.4994503911596879e-01 5.0357219470106150e-09 1.4993060907378208e-01 2.1154464810179679e-07 1.5356406679105367e-01 1.3706252181831300e-07 
                       -8.2902447261624446e-01 -1.9184895470095521e-07 1.6467553800504886e-01 -1.8348185053443659e-07 1.5103598925936063e-01 -8.7233980068010452e-09 1.5164219191996636e-01 -9.9474967556633516e-09 
                       1.5143950678488097e-01 -8.5748972141963096e-09 1.4992488503186333e-01 3.0274457922127226e-09 1.5093273194900200e-01 -3.1357638945054934e-08 1.5514348501414421e-01 1.4963193100607839e-08 
                       1.4958127641150895e-01 -7.7407709689648678e-09 1.4960160683500354e-01 8.5999000262590889e-10 1.4937096107846884e-01 -8.6909626611910741e-09 1.4925708351691916e-01 1.5972889869464951e-07 
                       1.5015805971161494e-01 7.7811229640028423e-08 1.6467553800504886e-01 -1.8348185053443659e-07 -8.2221405881374499e-01 1.3511711451932205e-08 1.5048982472199121e-01 -2.0265300018413834e-08 
                       1.5661547179825447e-01 -2.0016142279609008e-08 1.5367070680399239e-01 -8.1051420749743084e-09 1.5292164000152930e-01 -6.9883360032268819e-09 1.5304894109132577e-01 -6.9846887005589005e-09 
                       1.5266758846468340e-01 -1.7868057543180742e-08 1.5378885886475557e-01 4.1439648608501944e-09 1.5326796548854252e-01 -7.0944953353478707e-09 1.5432230780876027e-01 9.7611160344338624e-09 
                       1.5126840218830612e-01 -1.0149252819168033e-09 1.5096821018399895e-01 -8.3894119173536740e-09 1.5103598925936063e-01 -8.7233980068010452e-09 1.5048982472199121e-01 -2.0265300018413834e-08 
                       -8.3410815140352612e-01 9.1428531323713609e-08 

1.3593599999999999e+00 -8.3646667405593134e-01 1.4063377583907379e-07 1.5370154652706117e-01 -2.5677665154981809e-08 1.5281684364406656e-01 -1.7234535552209792e-08 1.5407331636957217e-01 2.4107732449199122e-09 
                       1.5435466306892917e-01 8.9157494202228469e-10 1.5273674174546881e-01 -1.5141476268635072e-08 1.5301272061284621e-01 -1.4369844496300303e-08 1.5287704212634645e-01 -1.2836015820658149e-08 
                       1.5118994306493475e-01 -8.8182608413164378e-09 1.5167605017635588e-01 -2.9537635975717404e-09 1.5175650544180955e-01 -1.2058811873854449e-08 1.5164219191991751e-01 -1.1598004294449531e-08 
                       1.5661547179822299e-01 -2.3337258595792210e-08 1.5370154652706117e-01 -2.5677665154981809e-08 -8.3327560342193863e-01 4.6638170793931133e-08 1.5357364631150117e-01 -1.5085711608164174e-09 
                       1.5280781759951376e-01 -1.9256377089558105e-09 1.5267238800551317e-01 -6.7012760620710825e-09 1.5370329395568644e-01 8.2815653396412972e-10 1.5294737326461322e-01 -6.1818084664435942e-09 
                       1.5315209400576871e-01 -1.2223710940061237e-09 1.5183324286352701e-01 8.7683568507638202e-09 1.5180440164869255e-01 8.7327671163602690e-09 1.5193034427642391e-01 -1.3446409347790300e-09 
                       1.5143950678482082e-01 -9.9976604316999604e-09 1.5367070680391859e-01 -9.4499626289894511e-09 1.5281684364406656e-01 -1.7234535552209792e-08 1.5357364631150117e-01 -1.5085711608164174e-09 
                       -8.3218048367480946e-01 -3.0424734803141391e-09 1.5225136515298826e-01 -3.1401754626756206e-09 1.5147119378065194e-01 -6.2843859424582701e-09 1.5484599722482317e-01 -6.7672452837427485e-09 
                       1.5555210071602174e-01 -1.5939823993756288e-08 1.5371605739872349e-01 -7.2752865566202459e-09 1.5353953996156564e-01 2.1042463857988865e-08 1.5094632010573716e-01 1.6340641250934141e-08 
                       1.5061962655802469e-01 2.8348605449003888e-08 1.4992488503204240e-01 3.5297653351600850e-09 1.5292164000148475e-01 -8.1478539754474970e-09 1.5407331636957217e-01 2.4107732449199122e-09 
                       1.5280781759951376e-01 -1.9256377089558105e-09 1.5225136515298826e-01 -3.1401754626756206e-09 -8.3105717670472923e-01 7.0719316878323768e-08 1.5334422094384148e-01 -6.3849337674263647e-10 
                       1.5191987916215674e-01 2.0378533106223252e-10 1.5262447484637270e-01 2.7209882342400442e-09 1.5209909249843312e-01 3.2554872916083948e-09 1.5162344380551765e-01 -3.0462238820089029e-08 