! Touchstone file exported from Ansys Full-Wave Spice
! Project: 0000_PSI_S-parameter_Sweep
!  Design: unknown
! Creation time: Tue Apr 22 10:16:35 2025
! Notes: ! Touchstone(R) file created by SIwave 2025 R1
!      : ! Touchstone(R) file created on Tue Apr 22 10:16:35 2025

# HZ S RI R 0.1
! Modal data exported
! Port[1] = PORT_1_L34_SOC_VSOC_Group_U40_GND_Group
! Port[2] = PORT_2_U1_SOC_VSOC_Group_U1_GRP_1_1_GND
! Port[3] = SOC_VSOC_C467_1
! Port[4] = SOC_VSOC_C468_1
! Port[5] = SOC_VSOC_C469_1
! Port[6] = SOC_VSOC_C470_1
! Port[7] = SOC_VSOC_C471_1
! Port[8] = SOC_VSOC_C473_1
! Port[9] = SOC_VSOC_C560_1
! Port[10] = SOC_VSOC_C560_3
! Port[11] = SOC_VSOC_C561_1
! Port[12] = SOC_VSOC_C561_3
! Port[13] = SOC_VSOC_C648_1

0.0000000000000000e+00 -8.3487779885481828e-01 0.0000000000000000e+00 1.5448259099959605e-01 0.0000000000000000e+00 1.5313083830040111e-01 0.0000000000000000e+00 1.5262668004711574e-01 0.0000000000000000e+00 
                       1.5221467758906893e-01 0.0000000000000000e+00 1.5486296392870041e-01 0.0000000000000000e+00 1.5332364022178085e-01 0.0000000000000000e+00 1.5473034695460297e-01 0.0000000000000000e+00 
                       1.5015841734604568e-01 0.0000000000000000e+00 1.5016001936918505e-01 0.0000000000000000e+00 1.5099967976516959e-01 0.0000000000000000e+00 1.5158275174316932e-01 0.0000000000000000e+00 
                       1.5660519258981248e-01 0.0000000000000000e+00 1.5448259099959605e-01 0.0000000000000000e+00 -8.3349962831235147e-01 0.0000000000000000e+00 1.5338414065914474e-01 0.0000000000000000e+00 
                       1.5264128644824271e-01 0.0000000000000000e+00 1.5243613083992685e-01 0.0000000000000000e+00 1.5346674680008410e-01 0.0000000000000000e+00 1.5307267755264101e-01 0.0000000000000000e+00 
                       1.5378971068176012e-01 0.0000000000000000e+00 1.5136442675277237e-01 0.0000000000000000e+00 1.5119582044950469e-01 0.0000000000000000e+00 1.5184816706766113e-01 0.0000000000000000e+00 
                       1.5194662896930530e-01 0.0000000000000000e+00 1.5387130109154190e-01 0.0000000000000000e+00 1.5313083830040111e-01 0.0000000000000000e+00 1.5338414065914474e-01 0.0000000000000000e+00 
                       -8.3156568870104919e-01 0.0000000000000000e+00 1.5208356862970521e-01 0.0000000000000000e+00 1.5122466213758184e-01 0.0000000000000000e+00 1.5368904788006937e-01 0.0000000000000000e+00 
                       1.5549019534652359e-01 0.0000000000000000e+00 1.5504141250563003e-01 0.0000000000000000e+00 1.4970764252315732e-01 0.0000000000000000e+00 1.4980692177265173e-01 0.0000000000000000e+00 
                       1.5102289372966357e-01 0.0000000000000000e+00 1.5383982391842749e-01 0.0000000000000000e+00 1.5314454129792238e-01 0.0000000000000000e+00 1.5262668004711574e-01 0.0000000000000000e+00 
                       1.5264128644824271e-01 0.0000000000000000e+00 1.5208356862970521e-01 0.0000000000000000e+00 -8.2853604103141620e-01 0.0000000000000000e+00 1.5344840269483120e-01 0.0000000000000000e+00 
                       1.5211859079628254e-01 0.0000000000000000e+00 1.5267029831907813e-01 0.0000000000000000e+00 1.5183828165035990e-01 0.0000000000000000e+00 1.5059368386206179e-01 0.0000000000000000e+00 
                       1.5172414778821586e-01 0.0000000000000000e+00 1.5368388751023632e-01 0.0000000000000000e+00 1.5190931572861924e-01 0.0000000000000000e+00 1.5319789755649815e-01 0.0000000000000000e+00 
                       1.5221467758906893e-01 0.0000000000000000e+00 1.5243613083992685e-01 0.0000000000000000e+00 1.5122466213758184e-01 0.0000000000000000e+00 1.5344840269483120e-01 0.0000000000000000e+00 
                       -8.2266066758384793e-01 0.0000000000000000e+00 1.5115738440691551e-01 0.0000000000000000e+00 1.5144985746042566e-01 0.0000000000000000e+00 1.5103805960582872e-01 0.0000000000000000e+00 
                       1.5450260272076433e-01 0.0000000000000000e+00 1.5105590040149136e-01 0.0000000000000000e+00 1.5110139478437756e-01 0.0000000000000000e+00 1.5037141533939788e-01 0.0000000000000000e+00 
                       1.5266017960306794e-01 0.0000000000000000e+00 1.5486296392870041e-01 0.0000000000000000e+00 1.5346674680008410e-01 0.0000000000000000e+00 1.5368904788006937e-01 0.0000000000000000e+00 
                       1.5211859079628254e-01 0.0000000000000000e+00 1.5115738440691551e-01 0.0000000000000000e+00 -8.3140010591666924e-01 0.0000000000000000e+00 1.5513488659444361e-01 0.0000000000000000e+00 
                       1.5665543364056828e-01 0.0000000000000000e+00 1.4933668100495029e-01 0.0000000000000000e+00 1.4934631786178809e-01 0.0000000000000000e+00 1.5048552010353630e-01 0.0000000000000000e+00 
                       1.5112902247648846e-01 0.0000000000000000e+00 1.5401751042267220e-01 0.0000000000000000e+00 1.5332364022178085e-01 0.0000000000000000e+00 1.5307267755264101e-01 0.0000000000000000e+00 
                       1.5549019534652359e-01 0.0000000000000000e+00 1.5267029831907813e-01 0.0000000000000000e+00 1.5144985746042566e-01 0.0000000000000000e+00 1.5513488659444361e-01 0.0000000000000000e+00 
                       -8.3192011127455778e-01 0.0000000000000000e+00 1.5375415756606278e-01 0.0000000000000000e+00 1.4956813653642312e-01 0.0000000000000000e+00 1.4966716187377060e-01 0.0000000000000000e+00 
                       1.5084720763479514e-01 0.0000000000000000e+00 1.5322342205152789e-01 0.0000000000000000e+00 1.5371847011691486e-01 0.0000000000000000e+00 1.5473034695460297e-01 0.0000000000000000e+00 
                       1.5378971068176012e-01 0.0000000000000000e+00 1.5504141250563003e-01 0.0000000000000000e+00 1.5183828165035990e-01 0.0000000000000000e+00 1.5103805960582872e-01 0.0000000000000000e+00 
                       1.5665543364056828e-01 0.0000000000000000e+00 1.5375415756606278e-01 0.0000000000000000e+00 -8.3122821615659570e-01 0.0000000000000000e+00 1.4943605194564913e-01 0.0000000000000000e+00 
                       1.4944215203070516e-01 0.0000000000000000e+00 1.5059431416696878e-01 0.0000000000000000e+00 1.5126880425506747e-01 0.0000000000000000e+00 1.5363949115322234e-01 0.0000000000000000e+00 
                       1.5015841734604568e-01 0.0000000000000000e+00 1.5136442675277237e-01 0.0000000000000000e+00 1.4970764252315732e-01 0.0000000000000000e+00 1.5059368386206179e-01 0.0000000000000000e+00 
                       1.5450260272076433e-01 0.0000000000000000e+00 1.4933668100495029e-01 0.0000000000000000e+00 1.4956813653642312e-01 0.0000000000000000e+00 1.4943605194564913e-01 0.0000000000000000e+00 
                       -8.2267668421862195e-01 0.0000000000000000e+00 1.6835877071038885e-01 0.0000000000000000e+00 1.5003760955366069e-01 0.0000000000000000e+00 1.4923707578371265e-01 0.0000000000000000e+00 
                       1.5037558547886476e-01 0.0000000000000000e+00 1.5016001936918505e-01 0.0000000000000000e+00 1.5119582044950469e-01 0.0000000000000000e+00 1.4980692177265173e-01 0.0000000000000000e+00 
                       1.5172414778821586e-01 0.0000000000000000e+00 1.5105590040149136e-01 0.0000000000000000e+00 1.4934631786178809e-01 0.0000000000000000e+00 1.4966716187377060e-01 0.0000000000000000e+00 
                       1.4944215203070516e-01 0.0000000000000000e+00 1.6835877071038885e-01 0.0000000000000000e+00 -8.2335382893192799e-01 0.0000000000000000e+00 1.5288486521585948e-01 0.0000000000000000e+00 
                       1.4932041133831825e-01 0.0000000000000000e+00 1.5039134011987806e-01 0.0000000000000000e+00 1.5099967976516959e-01 0.0000000000000000e+00 1.5184816706766113e-01 0.0000000000000000e+00 
                       1.5102289372966357e-01 0.0000000000000000e+00 1.5368388751023632e-01 0.0000000000000000e+00 1.5110139478437756e-01 0.0000000000000000e+00 1.5048552010353630e-01 0.0000000000000000e+00 
                       1.5084720763479514e-01 0.0000000000000000e+00 1.5059431416696878e-01 0.0000000000000000e+00 1.5003760955366069e-01 0.0000000000000000e+00 1.5288486521585948e-01 0.0000000000000000e+00 
                       -8.2898988104283700e-01 0.0000000000000000e+00 1.6427849094569066e-01 0.0000000000000000e+00 1.5120585056504746e-01 0.0000000000000000e+00 1.5158275174316932e-01 0.0000000000000000e+00 
                       1.5194662896930530e-01 0.0000000000000000e+00 1.5383982391842749e-01 0.0000000000000000e+00 1.5190931572861924e-01 0.0000000000000000e+00 1.5037141533939788e-01 0.0000000000000000e+00 
                       1.5112902247648846e-01 0.0000000000000000e+00 1.5322342205152789e-01 0.0000000000000000e+00 1.5126880425506747e-01 0.0000000000000000e+00 1.4923707578371265e-01 0.0000000000000000e+00 
                       1.4932041133831825e-01 0.0000000000000000e+00 1.6427849094569066e-01 0.0000000000000000e+00 -8.2984701198814159e-01 0.0000000000000000e+00 1.5173984943824667e-01 0.0000000000000000e+00 
                       1.5660519258981248e-01 0.0000000000000000e+00 1.5387130109154190e-01 0.0000000000000000e+00 1.5314454129792238e-01 0.0000000000000000e+00 1.5319789755649815e-01 0.0000000000000000e+00 
                       1.5266017960306794e-01 0.0000000000000000e+00 1.5401751042267220e-01 0.0000000000000000e+00 1.5371847011691486e-01 0.0000000000000000e+00 1.5363949115322234e-01 0.0000000000000000e+00 
                       1.5037558547886476e-01 0.0000000000000000e+00 1.5039134011987806e-01 0.0000000000000000e+00 1.5120585056504746e-01 0.0000000000000000e+00 1.5173984943824667e-01 0.0000000000000000e+00 
                       -8.3456720943385787e-01 0.0000000000000000e+00 

1.0000000000000000e+00 -8.3487868481066352e-01 8.6163770128749580e-08 1.5448313520725393e-01 -9.0108925685732009e-09 1.5313117640303803e-01 -9.8460794677070987e-09 1.5262655414673149e-01 -1.0045622270161967e-08 
                       1.5221432181672817e-01 -3.8936198070419701e-09 1.5486287035491222e-01 -4.8657263809925319e-09 1.5332329231789960e-01 -9.4213847276869368e-09 1.5473080206889672e-01 -4.1309356129778137e-09 
                       1.5016088547902623e-01 1.4582726887711762e-08 1.5016282000440936e-01 2.5203942185513338e-08 1.5100097347958147e-01 -2.9571814975622272e-08 1.5158394414553611e-01 -3.5916665736299952e-08 
                       1.5660579525955265e-01 -9.2602992857040452e-09 1.5448313520725393e-01 -9.0108925685732009e-09 -8.3349998369211709e-01 2.2142074039309679e-08 1.5338345797364261e-01 -3.1572555126958395e-09 
                       1.5264030778115781e-01 -8.5107050443133537e-10 1.5243496432279291e-01 3.6663900824253185e-09 1.5346550562793818e-01 -2.8523915002949746e-09 1.5307134906690711e-01 -3.8045334085845533e-09 
                       1.5378896924304591e-01 -1.6959264390501185e-09 1.5136596085079027e-01 1.3073891879985153e-08 1.5119766702079793e-01 1.6790425705384302e-08 1.5184854371520806e-01 -1.0418449376447907e-08 
                       1.5194689727095004e-01 -1.8572219147776799e-08 1.5387119492341075e-01 -5.2073405918511602e-09 1.5313117640303803e-01 -9.8460794677070987e-09 1.5338345797364261e-01 -3.1572555126958395e-09 
                       -8.3156712855404935e-01 -1.2343956648380819e-08 1.5208222544025743e-01 -9.3031577670098018e-09 1.5122315179722878e-01 -2.2103949107338660e-09 1.5368735089371352e-01 -6.2522106494340468e-09 
                       1.5548845135424616e-01 -1.0172454455867784e-08 1.5504016557694150e-01 -5.2683016280516084e-09 1.4970887574150610e-01 6.6530780446365424e-08 1.4980849151970704e-01 1.0340465750035448e-07 
                       1.5102297772109291e-01 -5.1321411336766902e-08 1.5383983780790017e-01 -5.2720906585123758e-08 1.5314414885846270e-01 -7.2134478467247133e-09 1.5262655414673149e-01 -1.0045622270161967e-08 
                       1.5264030778115781e-01 -8.5107050443133537e-10 1.5208222544025743e-01 -9.3031577670098018e-09 -8.2853816928667134e-01 5.4990469381678153e-08 1.5344649008662503e-01 1.4480581138361586e-08 
                       1.5211663845771367e-01 -4.2935817048876507e-10 1.5266824119964204e-01 -5.5272455341193186e-09 1.5183686061359988e-01 -2.5342321813535219e-09 1.5059471886675560e-01 -9.4396176969103309e-10 
                       1.5172552523346741e-01 1.3722162058423966e-08 1.5368346183525775e-01 -4.7503450894698340e-09 1.5190881174482707e-01 -4.9840484583220337e-08 1.5319713273249203e-01 9.9955996454006520e-10 
                       1.5221432181672817e-01 -3.8936198070419701e-09 1.5243496432279291e-01 3.6663900824253185e-09 1.5122315179722878e-01 -2.2103949107338660e-09 1.5344649008662503e-01 1.4480581138361586e-08 
                       -8.2266345770617677e-01 1.7022010825429982e-07 1.5115528750207963e-01 2.6040287179681121e-09 1.5144766649827765e-01 7.8850485928297136e-10 1.5103647702520623e-01 1.0218229248016200e-09 
                       1.5450334193629289e-01 -3.5474493508509459e-08 1.5105692227318240e-01 -1.2600322985560821e-07 1.5110095410574276e-01 -1.4564279351089125e-08 1.5037084963958006e-01 -1.8618753818397695e-08 
                       1.5265920789227774e-01 7.8801014666313879e-09 1.5486287035491222e-01 -4.8657263809925319e-09 1.5346550562793818e-01 -2.8523915002949746e-09 1.5368735089371352e-01 -6.2522106494340468e-09 
                       1.5211663845771367e-01 -4.2935817048876507e-10 1.5115528750207963e-01 2.6040287179681121e-09 -8.3140266935842821e-01 4.6124915803529580e-09 1.5513245708593953e-01 -1.2222376656165642e-09 
                       1.5665363935112528e-01 -1.7173741882135216e-09 1.4933733338649702e-01 2.6845519580753956e-08 1.4934729574497133e-01 4.2088717233864877e-08 1.5048496364852404e-01 -2.0894891433752845e-08 
                       1.5112837647583929e-01 -3.2563003457385995e-08 1.5401652509030297e-01 -5.2484326828743627e-09 1.5332329231789960e-01 -9.4213847276869368e-09 1.5307134906690711e-01 -3.8045334085845533e-09 
                       1.5548845135424616e-01 -1.0172454455867784e-08 1.5266824119964204e-01 -5.5272455341193186e-09 1.5144766649827765e-01 7.8850485928297136e-10 1.5513245708593953e-01 -1.2222376656165642e-09 
                       -8.3192289087243310e-01 -1.3308367797587674e-08 1.5375231312694543e-01 -5.5474912927812769e-09 1.4956874711748386e-01 5.7463037724655260e-08 1.4966810680834275e-01 8.9241194887627491e-08 
                       1.5084662658841774e-01 -4.4804877422585995e-08 1.5322276674012381e-01 -4.8646409834901264e-08 1.5371736569297453e-01 -4.8483567581449516e-09 1.5473080206889672e-01 -4.1309356129778137e-09 
                       1.5378896924304591e-01 -1.6959264390501185e-09 1.5504016557694150e-01 -5.2683016280516084e-09 1.5183686061359988e-01 -2.5342321813535219e-09 1.5103647702520623e-01 1.0218229248016200e-09 
                       1.5665363935112528e-01 -1.7173741882135216e-09 1.5375231312694543e-01 -5.5474912927812769e-09 -8.3122970253738560e-01 4.0717491717863825e-09 1.4943718358245495e-01 2.8562606429709624e-08 
                       1.4944360871278922e-01 4.4581619437553387e-08 1.5059425559925088e-01 -1.9225317398687979e-08 1.5126865811317841e-01 -3.0873853469177385e-08 1.5363904744978690e-01 -7.1293736526683073e-09 
                       1.5016088547902623e-01 1.4582726887711762e-08 1.5136596085079027e-01 1.3073891879985153e-08 1.4970887574150610e-01 6.6530780446365424e-08 1.5059471886675560e-01 -9.4396176969103309e-10 
                       1.5450334193629289e-01 -3.5474493508509459e-08 1.4933733338649702e-01 2.6845519580753956e-08 1.4956874711748386e-01 5.7463037724655260e-08 1.4943718358245495e-01 2.8562606429709624e-08 
                       -8.2267453962522730e-01 -2.8612049493069457e-07 1.6836100647345265e-01 -5.4340273964637893e-07 1.5004013908928382e-01 2.3604636788762716e-07 1.4923937829886810e-01 4.0456190278762177e-07 
                       1.5037743863564212e-01 1.7748764758013728e-08 1.5016282000440936e-01 2.5203942185513338e-08 1.5119766702079793e-01 1.6790425705384302e-08 1.4980849151970704e-01 1.0340465750035448e-07 
                       1.5172552523346741e-01 1.3722162058423966e-08 1.5105692227318240e-01 -1.2600322985560821e-07 1.4934729574497133e-01 4.2088717233864877e-08 1.4966810680834275e-01 8.9241194887627491e-08 
                       1.4944360871278922e-01 4.4581619437553387e-08 1.6836100647345265e-01 -5.4340273964637893e-07 -8.2335186000706206e-01 -6.8126637032397689e-07 1.5288785317103643e-01 3.9105340137137583e-07 
                       1.4932316522891542e-01 5.9690684232859647e-07 1.5039352005263532e-01 2.7025285057115875e-08 1.5100097347958147e-01 -2.9571814975622272e-08 1.5184854371520806e-01 -1.0418449376447907e-08 
                       1.5102297772109291e-01 -5.1321411336766902e-08 1.5368346183525775e-01 -4.7503450894698340e-09 1.5110095410574276e-01 -1.4564279351089125e-08 1.5048496364852404e-01 -2.0894891433752845e-08 
                       1.5084662658841774e-01 -4.4804877422585995e-08 1.5059425559925088e-01 -1.9225317398687979e-08 1.5004013908928382e-01 2.3604636788762716e-07 1.5288785317103643e-01 3.9105340137137583e-07 
                       -8.2898960810394762e-01 -9.9786111850071780e-08 1.6427872970806223e-01 -3.0876711179669275e-07 1.5120647574886720e-01 -2.2812562956729385e-08 1.5158394414553611e-01 -3.5916665736299952e-08 
                       1.5194689727095004e-01 -1.8572219147776799e-08 1.5383983780790017e-01 -5.2720906585123758e-08 1.5190881174482707e-01 -4.9840484583220337e-08 1.5037084963958006e-01 -1.8618753818397695e-08 
                       1.5112837647583929e-01 -3.2563003457385995e-08 1.5322276674012381e-01 -4.8646409834901264e-08 1.5126865811317841e-01 -3.0873853469177385e-08 1.4923937829886810e-01 4.0456190278762177e-07 
                       1.4932316522891542e-01 5.9690684232859647e-07 1.6427872970806223e-01 -3.0876711179669275e-07 -8.2984695391741892e-01 -3.7470604276568336e-07 1.5174037127826254e-01 -2.9863250962707169e-08 
                       1.5660579525955265e-01 -9.2602992857040452e-09 1.5387119492341075e-01 -5.2073405918511602e-09 1.5314414885846270e-01 -7.2134478467247133e-09 1.5319713273249203e-01 9.9955996454006520e-10 
                       1.5265920789227774e-01 7.8801014666313879e-09 1.5401652509030297e-01 -5.2484326828743627e-09 1.5371736569297453e-01 -4.8483567581449516e-09 1.5363904744978690e-01 -7.1293736526683073e-09 
                       1.5037743863564212e-01 1.7748764758013728e-08 1.5039352005263532e-01 2.7025285057115875e-08 1.5120647574886720e-01 -2.2812562956729385e-08 1.5174037127826254e-01 -2.9863250962707169e-08 
                       -8.3456784402894257e-01 3.7879621765640248e-08 

1.1659100000000000e+00 -8.3487868481071048e-01 1.0045920123664523e-07 1.5448313520721482e-01 -1.0505889751269489e-08 1.5313117640288912e-01 -1.1479642496266511e-08 1.5262655414669582e-01 -1.1712291457305825e-08 
                       1.5221432181682237e-01 -4.5396102766685166e-09 1.5486287035485141e-01 -5.6729990376384883e-09 1.5332329231777131e-01 -1.0984486653889031e-08 1.5473080206883499e-01 -4.8162991331801360e-09 
                       1.5016088547984638e-01 1.7002147019643713e-08 1.5016282000559733e-01 2.9385528109525388e-08 1.5100097347897609e-01 -3.4478074738003743e-08 1.5158394414461637e-01 -4.1875599654748923e-08 
                       1.5660579525950480e-01 -1.0796675534785553e-08 1.5448313520721482e-01 -1.0505889751269489e-08 -8.3349998369209410e-01 2.5815665544368064e-08 1.5338345797355368e-01 -3.6810757658741933e-09 
                       1.5264030778113871e-01 -9.9227160972993407e-10 1.5243496432284739e-01 4.2746808568664248e-09 1.5346550562789263e-01 -3.3256317699665522e-09 1.5307134906682812e-01 -4.4357435385273698e-09 
                       1.5378896924300084e-01 -1.9772975903586812e-09 1.5136596085125512e-01 1.5242981233567731e-08 1.5119766702146381e-01 1.9576125164898144e-08 1.5184854371487672e-01 -1.2146974278849488e-08 
                       1.5194689727043997e-01 -2.1653535974191595e-08 1.5387119492336887e-01 -6.0712904661977442e-09 1.5313117640288912e-01 -1.1479642496266511e-08 1.5338345797355368e-01 -3.6810757658741933e-09 
                       -8.3156712855451564e-01 -1.4391942452194536e-08 1.5208222544015776e-01 -1.0846644662504567e-08 1.5122315179742421e-01 -2.5771215506183725e-09 1.5368735089352259e-01 -7.2895148986392154e-09 
                       1.5548845135386868e-01 -1.1860166336508424e-08 1.5504016557674893e-01 -6.1423655311769853e-09 1.4970887574376587e-01 7.7568901998684518e-08 1.4980849152296424e-01 1.2056052389327688e-07 
                       1.5102297771950346e-01 -5.9836146530178443e-08 1.5383983780549823e-01 -6.1467831945050806e-08 1.5314414885831529e-01 -8.4102309639861159e-09 1.5262655414669582e-01 -1.1712291457305825e-08 
                       1.5264030778113871e-01 -9.9227160972993407e-10 1.5208222544015776e-01 -1.0846644662504567e-08 -8.2853816928653068e-01 6.4113938158865795e-08 1.5344649008668471e-01 1.6883054349964596e-08 
                       1.5211663845767867e-01 -5.0059298011051987e-10 1.5266824119955949e-01 -6.4442708321668057e-09 1.5183686061355980e-01 -2.9546866380456876e-09 1.5059471886718157e-01 -1.1005745184037457e-09 
                       1.5172552523416469e-01 1.5998805889553357e-08 1.5368346183487991e-01 -5.5384748065067670e-09 1.5190881174422982e-01 -5.8109519323667208e-08 1.5319713273246344e-01 1.1653969617525267e-09 
                       1.5221432181682237e-01 -4.5396102766685166e-09 1.5243496432284739e-01 4.2746808568664248e-09 1.5122315179742421e-01 -2.5771215506183725e-09 1.5344649008668471e-01 1.6883054349964596e-08 
                       -8.2266345770562355e-01 1.9846132642474728e-07 1.5115528750218660e-01 3.0360631133076421e-09 1.5144766649845889e-01 9.1932568270392082e-10 1.5103647702531062e-01 1.1913535568070975e-09 
                       1.5450334193515586e-01 -4.1360066620966758e-08 1.5105692227142839e-01 -1.4690842556953938e-07 1.5110095410625080e-01 -1.6980639010651624e-08 1.5037084964052463e-01 -2.1707791379128064e-08 
                       1.5265920789237089e-01 9.1874890941401039e-09 1.5486287035485141e-01 -5.6729990376384883e-09 1.5346550562789263e-01 -3.3256317699665522e-09 1.5368735089352259e-01 -7.2895148986392154e-09 
                       1.5211663845767867e-01 -5.0059298011051987e-10 1.5115528750218660e-01 3.0360631133076421e-09 -8.3140266935854967e-01 5.3777500680739766e-09 1.5513245708579665e-01 -1.4250190999130590e-09 
                       1.5665363935101689e-01 -2.0023037303355052e-09 1.4933733338751953e-01 3.1299459628431338e-08 1.4934729574645314e-01 4.9071656157598554e-08 1.5048496364780656e-01 -2.4361562797721908e-08 
                       1.5112837647473715e-01 -3.7965531245956984e-08 1.5401652509022540e-01 -6.1192001423188076e-09 1.5332329231777131e-01 -1.0984486653889031e-08 1.5307134906682812e-01 -4.4357435385273698e-09 
                       1.5548845135386868e-01 -1.1860166336508424e-08 1.5266824119955949e-01 -6.4442708321668057e-09 1.5144766649845889e-01 9.1932568270392082e-10 1.5513245708579665e-01 -1.4250190999130590e-09 
                       -8.3192289087282201e-01 -1.5516359064618764e-08 1.5375231312677459e-01 -6.4678755556028430e-09 1.4956874711946849e-01 6.6996730109585418e-08 1.4966810681120715e-01 1.0404720123798899e-07 
                       1.5084662658701437e-01 -5.2238454493397486e-08 1.5322276673800200e-01 -5.6717335468856045e-08 1.5371736569284650e-01 -5.6527476147032578e-09 1.5473080206883499e-01 -4.8162991331801360e-09 
                       1.5378896924300084e-01 -1.9772975903586812e-09 1.5504016557674893e-01 -6.1423655311769853e-09 1.5183686061355980e-01 -2.9546866380456876e-09 1.5103647702531062e-01 1.1913535568070975e-09 
                       1.5665363935101689e-01 -2.0023037303355052e-09 1.5375231312677459e-01 -6.4678755556028430e-09 -8.3122970253751238e-01 4.7472930868283550e-09 1.4943718358349922e-01 3.3301428354771815e-08 
                       1.4944360871430126e-01 5.1978155763488391e-08 1.5059425559853371e-01 -2.2414989733560224e-08 1.5126865811206761e-01 -3.5996134381572682e-08 1.5363904744970802e-01 -8.3122080283159032e-09 
                       1.5016088547984638e-01 1.7002147019643713e-08 1.5136596085125512e-01 1.5242981233567731e-08 1.4970887574376587e-01 7.7568901998684518e-08 1.5059471886718157e-01 -1.1005745184037457e-09 
                       1.5450334193515586e-01 -4.1360066620966758e-08 1.4933733338751953e-01 3.1299459628431338e-08 1.4956874711946849e-01 6.6996730109585418e-08 1.4943718358349922e-01 3.3301428354771815e-08 
                       -8.2267453963685611e-01 -3.3359074501458544e-07 1.6836100645612090e-01 -6.3355868639472033e-07 1.5004013909751887e-01 2.7520881992494345e-07 1.4923937831194076e-01 4.7168276673240448e-07 
                       1.5037743863640818e-01 2.0693462238409884e-08 1.5016282000559733e-01 2.9385528109525388e-08 1.5119766702146381e-01 1.9576125164898144e-08 1.4980849152296424e-01 1.2056052389327688e-07 
                       1.5172552523416469e-01 1.5998805889553357e-08 1.5105692227142839e-01 -1.4690842556953938e-07 1.4934729574645314e-01 4.9071656157598554e-08 1.4966810681120715e-01 1.0404720123798899e-07 
                       1.4944360871430126e-01 5.1978155763488391e-08 1.6836100645612090e-01 -6.3355868639472033e-07 -8.2335186003182259e-01 -7.9429527126338570e-07 1.5288785318317008e-01 4.5593306995274641e-07 
                       1.4932316524783942e-01 6.9593965460148745e-07 1.5039352005374915e-01 3.1509049984634495e-08 1.5100097347897609e-01 -3.4478074738003743e-08 1.5184854371487672e-01 -1.2146974278849488e-08 
                       1.5102297771950346e-01 -5.9836146530178443e-08 1.5368346183487991e-01 -5.5384748065067670e-09 1.5110095410625080e-01 -1.6980639010651624e-08 1.5048496364780656e-01 -2.4361562797721908e-08 
                       1.5084662658701437e-01 -5.2238454493397486e-08 1.5059425559853371e-01 -2.2414989733560224e-08 1.5004013909751887e-01 2.7520881992494345e-07 1.5288785318317008e-01 4.5593306995274641e-07 
                       -8.2898960810945521e-01 -1.1634162507193656e-07 1.6427872969902163e-01 -3.5999466237940750e-07 1.5120647574829835e-01 -2.6597395220477343e-08 1.5158394414461637e-01 -4.1875599654748923e-08 
                       1.5194689727043997e-01 -2.1653535974191595e-08 1.5383983780549823e-01 -6.1467831945050806e-08 1.5190881174422982e-01 -5.8109519323667208e-08 1.5037084964052463e-01 -2.1707791379128064e-08 
                       1.5112837647473715e-01 -3.7965531245956984e-08 1.5322276673800200e-01 -5.6717335468856045e-08 1.5126865811206761e-01 -3.5996134381572682e-08 1.4923937831194076e-01 4.7168276673240448e-07 
                       1.4932316524783942e-01 6.9593965460148745e-07 1.6427872969902163e-01 -3.5999466237940750e-07 -8.2984695393167041e-01 -4.3687352085501822e-07 1.5174037127740142e-01 -3.4817862842048863e-08 
                       1.5660579525950480e-01 -1.0796675534785553e-08 1.5387119492336887e-01 -6.0712904661977442e-09 1.5314414885831529e-01 -8.4102309639861159e-09 1.5319713273246344e-01 1.1653969617525267e-09 
                       1.5265920789237089e-01 9.1874890941401039e-09 1.5401652509022540e-01 -6.1192001423188076e-09 1.5371736569284650e-01 -5.6527476147032578e-09 1.5363904744970802e-01 -8.3122080283159032e-09 
                       1.5037743863640818e-01 2.0693462238409884e-08 1.5039352005374915e-01 3.1509049984634495e-08 1.5120647574829835e-01 -2.6597395220477343e-08 1.5174037127740142e-01 -3.4817862842048863e-08 
                       -8.3456784402892581e-01 4.4164229817288467e-08 

1.3593599999999999e+00 -8.3487868481078753e-01 1.1712758257854900e-07 1.5448313520714976e-01 -1.2249046912594145e-08 1.5313117640266755e-01 -1.3384366540835288e-08 1.5262655414663373e-01 -1.3655617079077951e-08 
                       1.5221432181693839e-01 -5.2928310414997594e-09 1.5486287035475227e-01 -6.6142737930707214e-09 1.5332329231757796e-01 -1.2807053504467330e-08 1.5473080206873435e-01 -5.6154286143036091e-09 
                       1.5016088548098117e-01 1.9823175385786666e-08 1.5016282000725195e-01 3.4261230508700200e-08 1.5100097347816532e-01 -4.0198742240506686e-08 1.5158394414339099e-01 -4.8823678478158871e-08 
                       1.5660579525942453e-01 -1.2588080421919293e-08 1.5448313520714976e-01 -1.2249046912594145e-08 -8.3349998369207390e-01 3.0099049769556673e-08 1.5338345797341557e-01 -4.2918468287188974e-09 
                       1.5264030778110060e-01 -1.1569111951700592e-09 1.5243496432291059e-01 4.9839440109469435e-09 1.5346550562781580e-01 -3.8774268981934055e-09 1.5307134906670400e-01 -5.1717305122241314e-09 
                       1.5378896924292473e-01 -2.3053745523798045e-09 1.5136596085190071e-01 1.7772125533427110e-08 1.5119766702239787e-01 2.2824232896630896e-08 1.5184854371443651e-01 -1.4162423252295715e-08 
                       1.5194689726976784e-01 -2.5246331677046904e-08 1.5387119492329815e-01 -7.0786504978156703e-09 1.5313117640266755e-01 -1.3384366540835288e-08 1.5338345797341557e-01 -4.2918468287188974e-09 
                       -8.3156712855517734e-01 -1.6779880787891741e-08 1.5208222544000066e-01 -1.2646340515715913e-08 1.5122315179767326e-01 -3.0047224817199623e-09 1.5368735089323848e-01 -8.4990050135373274e-09 
                       1.5548845135332756e-01 -1.3828027582944381e-08 1.5504016557646344e-01 -7.1615184452690937e-09 1.4970887574689035e-01 9.0439281069588832e-08 1.4980849152748912e-01 1.4056415430207378e-07 
                       1.5102297771735415e-01 -6.9764273272157562e-08 1.5383983780225818e-01 -7.1666690885406997e-08 1.5314414885809274e-01 -9.8056724230313652e-09 1.5262655414663373e-01 -1.3655617079077951e-08 
                       1.5264030778110060e-01 -1.1569111951700592e-09 1.5208222544000066e-01 -1.2646340515715913e-08 -8.2853816928635027e-01 7.4751844461401580e-08 1.5344649008675385e-01 1.9684322765659640e-08 
                       1.5211663845761314e-01 -5.8365231053295443e-10 1.5266824119942576e-01 -7.5135164659201489e-09 1.5183686061348750e-01 -3.4449338457205596e-09 1.5059471886776216e-01 -1.2831840095244931e-09 