! Touchstone data
! Created: 22-Apr-2025 by IdEM 2023 (2023.0.0)
!
!*********************************************************
! COMMENTS
!*********************************************************
!
!  Touchstone file exported from Ansys Full-Wave Spice
!  Project: 0000_PSI_S-parameter_Sweep
!   Design: unknown
!  Creation time: Tue Apr 22 07:49:21 2025
!  Notes: ! Touchstone(R) file created by SIwave 2025 R1
!       : ! Touchstone(R) file created on Tue Apr 22 07:49:21 2025
! 
!  Modal data exported
!  Port[1] = PORT_1_L38_PWR_VECMX1_Group_U51_GND_Group
!  Port[2] = PORT_2_U1_PWR_VECMX1_Group_U1_GRP_0_0_GND
!  Port[3] = PWR_VECMX1_C513_1
!  Port[4] = PWR_VECMX1_C514_1
!  Port[5] = PWR_VECMX1_C515_1
!  Port[6] = PWR_VECMX1_C516_1
!  Port[7] = PWR_VECMX1_C517_1
!  Port[8] = PWR_VECMX1_C518_1
!  Port[9] = PWR_VECMX1_C519_1
!  Port[10] = PWR_VECMX1_C659_1
!  Port[11] = PWR_VECMX1_C659_3
!  Port[12] = PWR_VECMX1_C661_1
!  Port[13] = PWR_VECMX1_C661_3
!  Port[14] = PWR_VECMX1_C663_1
!  Port[15] = PWR_VECMX1_C663_3
!
!*********************************************************
!
!
!---------------------------
! Options Used in IdEM Flow
!---------------------------
!
! Fitting Options !
!
! Bandwidth: 1.0000e+09 Hz
! Order: [2 2 6] 
! SplitType: none 
! tol: 1.0000e-03 
! DC Point: enforced 
!
!---------------------------
!
! Passivity Options !
!
! Alg: SOC+HAM 
!    Max SOC it: 200 
!    Max HAM it: 50 
! Freq sampling: adaptive
! DC Point: enforced
! Optimization method: Model based
!
!---------------------------
!

# Hz S MA R 0.1

!
                   0   0.8515286808586036                  180   0.1335113269463555                    0   0.1318631832285674                    0   0.1344828519611424                    0
  0.1338528592025907                    0   0.1331018007884158                    0   0.1323636423224588                    0   0.1334309222280061                    0
  0.1341650211193544                    0   0.1309526352900098                    0   0.1315511260611671                    0    0.130554153328314                    0
  0.1308601402752233                    0   0.1304974202388045                    0   0.1303415967579701                    0
  0.1335113269463552                    0   0.8550757994761657                  180   0.1330213897109558                    0   0.1329652795173177                    0
  0.1327509424149501                    0   0.1325615866391578                    0   0.1327080151992323                    0   0.1327902071092834                    0
  0.1330676490141324                    0   0.1317500652403263                    0   0.1317542145741488                    0   0.1320400841022291                    0
  0.1318391359743107                    0   0.1324240463375813                    0   0.1318918555859602                    0
  0.1318631832285674                    0   0.1330213897109562                    0   0.8475078589715673                  180   0.1312513437356132                    0
  0.1312759031397586                    0   0.1317222519879241                    0   0.1330851866385059                    0   0.1310214385314404                    0
  0.1311300322640037                    0   0.1306308748747483                    0   0.1302784598705081                    0   0.1330046757489973                    0
  0.1309666465453431                    0   0.1336892781698055                    0   0.1345671934151728                    0
  0.1344828519611422                    0   0.1329652795173177                    0   0.1312513437356129                    0   0.8516981150197405                  180
  0.1355194967387536                    0   0.1328445047712988                    0   0.1318292947507736                    0   0.1343551058738162                    0
  0.1363769799194519                    0   0.1305908546762831                    0   0.1313151300414774                    0   0.1300699319273813                    0
  0.1303927412171389                    0   0.1299389580819908                    0   0.1297656406970786                    0
  0.1338528592025907                    0   0.1327509424149503                    0   0.1312759031397588                    0   0.1355194967387538                    0
  0.8520589471375751                  180   0.1334973577111711                    0   0.1319919982534828                    0   0.1355266949694986                    0
  0.1344667218387773                    0   0.1310236994046024                    0   0.1317734524777243                    0   0.1301746891625346                    0
  0.1305010297406421                    0   0.1299382872925062                    0   0.1297658136803602                    0
  0.1331018007884155                    0   0.1325615866391578                    0   0.1317222519879244                    0   0.1328445047712988                    0
  0.1334973577111709                    0   0.8482614695945599                  180    0.133010728306929                    0    0.132609041028642                    0
  0.1324385965382663                    0   0.1313855728062852                    0   0.1336181364745237                    0    0.130418239170533                    0
  0.1308666114735983                    0   0.1301611150356395                    0   0.1300259257519519                    0
  0.1323636423224587                    0   0.1327080151992328                    0   0.1330851866385066                    0   0.1318292947507738                    0
  0.1319919982534821                    0   0.1330107283069292                    0   0.8486910568315058                  180   0.1315926063378932                    0
  0.1316167327537689                    0   0.1324380778648503                    0    0.131024042154632                    0   0.1317590647023535                    0
  0.1333336117646347                    0   0.1310048165069338                    0   0.1309332381648323                    0
  0.1334309222280058                    0    0.132790207109284                    0   0.1310214385314402                    0    0.134355105873816                    0
   0.135526694969498                    0   0.1326090410286422                    0   0.1315926063378929                    0   0.8503890089449938                  180
  0.1352400840703319                    0   0.1314232521296804                    0   0.1322356991884678                    0   0.1301829349922007                    0
  0.1305092217062033                    0   0.1298324516994705                    0   0.1296393479698375                    0
   0.134165021119354                    0   0.1330676490141327                    0   0.1311300322640034                    0   0.1363769799194525                    0
  0.1344667218387773                    0   0.1324385965382663                    0   0.1316167327537694                    0   0.1352400840703314                    0
  0.8506276283351258                  180   0.1306256937383843                    0   0.1313955357287406                    0   0.1300682004178788                    0
  0.1303894076245359                    0   0.1299195061011285                    0   0.1297274660961467                    0
  0.1309526352900096                    0   0.1317500652403265                    0   0.1306308748747485                    0   0.1305908546762832                    0
  0.1310236994046026                    0   0.1313855728062854                    0   0.1324380778648506                    0   0.1314232521296805                    0
  0.1306256937383843                    0   0.8468848676523681                  180   0.1438722858063696                    0    0.130159899498343                    0
  0.1333241186008452                    0   0.1293965875831722                    0   0.1293112490282448                    0
  0.1315511260611668                    0   0.1317542145741488                    0   0.1302784598705078                    0   0.1313151300414776                    0
   0.131773452477724                    0   0.1336181364745237                    0   0.1310240421546321                    0   0.1322356991884681                    0
  0.1313955357287405                    0   0.1438722858063697                    0   0.8470150680642204                  180    0.129816453601985                    0
  0.1303095075166337                    0   0.1291186675920768                    0   0.1289523558655417                    0
   0.130554153328314                    0   0.1320400841022292                    0   0.1330046757489972                    0   0.1300699319273815                    0
  0.1301746891625341                    0   0.1304182391705329                    0   0.1317590647023534                    0   0.1301829349922004                    0
  0.1300682004178789                    0   0.1301598994983431                    0   0.1298164536019848                    0   0.8463431594149233                  180
  0.1439138307077388                    0   0.1308627115680161                    0   0.1333182893761954                    0
  0.1308601402752235                    0   0.1318391359743111                    0   0.1309666465453428                    0   0.1303927412171389                    0
   0.130501029740642                    0   0.1308666114735987                    0   0.1333336117646347                    0    0.130509221706203                    0
  0.1303894076245357                    0   0.1333241186008449                    0   0.1303095075166337                    0   0.1439138307077386                    0
   0.846783794331873                  180   0.1298396997842698                    0    0.129738090290531                    0
  0.1304974202388052                    0   0.1324240463375817                    0   0.1336892781698056                    0   0.1299389580819906                    0
  0.1299382872925062                    0   0.1301611150356394                    0   0.1310048165069342                    0   0.1298324516994703                    0
  0.1299195061011285                    0   0.1293965875831723                    0   0.1291186675920774                    0   0.1308627115680161                    0
  0.1298396997842699                    0   0.8433016114300096                  180   0.1466780643283907                    0
  0.1303415967579707                    0    0.131891855585961                    0    0.134567193415173                    0   0.1297656406970789                    0
  0.1297658136803599                    0   0.1300259257519515                    0   0.1309332381648318                    0   0.1296393479698371                    0
  0.1297274660961467                    0   0.1293112490282449                    0   0.1289523558655411                    0   0.1333182893761952                    0
  0.1297380902905308                    0   0.1466780643283905                    0   0.8446561281184368                  180

!
                   1   0.8515286808585665    179.9999933577482   0.1335113269463524 -3.092337024071574e-06   0.1318631832285644 -3.397265108664403e-06   0.1344828519611396 -2.047118428819949e-06
  0.1338528592025878 -2.604574804997768e-06    0.133101800788413 -2.567387452892342e-06   0.1323636423224559 -3.053782979092547e-06   0.1334309222280032 -2.769396503120919e-06
  0.1341650211193515 -2.300116888247395e-06   0.1309526352900068 -3.588779176919662e-06   0.1315511260611642 -3.237314112076415e-06   0.1305541533283111 -3.580416148002585e-06
  0.1308601402752205 -3.511903685311924e-06   0.1304974202388018 -3.59078245656676e-06   0.1303415967579674 -3.682516967236119e-06
  0.1335113269463521 -3.092337024071495e-06   0.8550757994761616    179.9999989838905    0.133021389710956 -4.219171544444474e-08   0.1329652795173179 -9.820599902282077e-08
  0.1327509424149503 -1.319120256273683e-07   0.1325615866391577 -2.306107315936979e-07   0.1327080151992324 -1.592548092225407e-07   0.1327902071092835 -4.180682594204347e-08
  0.1330676490141326 -4.232405625814395e-08   0.1317500652403262 -3.369778238284746e-07   0.1317542145741487 -4.420699654794802e-07   0.1320400841022292 -6.85917826761134e-08
  0.1318391359743104 -4.957936371111427e-07   0.1324240463375816 4.98547957262396e-08   0.1318918555859598 -6.212313320311739e-07
  0.1318631832285644 -3.397265108664424e-06   0.1330213897109564 -4.219171544458132e-08   0.8475078589715631    179.9999987252968   0.1312513437356128 -9.666513790613778e-07
  0.1312759031397582 -9.121374881974998e-07   0.1317222519879238 -6.508470336591208e-07   0.1330851866385062 4.59898616921308e-07     0.13102143853144 -9.097102274764155e-07
  0.1311300322640033 -9.760133500176774e-07   0.1306308748747481 -8.301805477279347e-07   0.1302784598705072 -1.464839063002412e-06   0.1330046757489979 2.090748436201779e-07
  0.1309666465453431 -5.609733162361709e-07   0.1336892781698054 4.18789266540657e-07   0.1345671934151738 1.13422564089053e-06
  0.1344828519611393 -2.047118428819907e-06   0.1329652795173179 -9.820599902282391e-08   0.1312513437356125 -9.66651379061294e-07    0.851698115019737    179.9999989651974
  0.1355194967387543 6.639717175243536e-07    0.132844504771299 1.034839954601681e-07   0.1318292947507733 -6.69584732061718e-07   0.1343551058738172 7.424202518857517e-07
  0.1363769799194529 2.372936938340934e-06    0.130590854676282 -1.584064940625447e-06   0.1313151300414771 -6.352026743033275e-07   0.1300699319273807 -1.308923643668114e-06
  0.1303927412171384 -1.123324010855867e-06   0.1299389580819906 -1.166749977301499e-06   0.1297656406970783 -1.301487688870237e-06
  0.1338528592025878 -2.604574804997761e-06   0.1327509424149504 -1.319120256274184e-07   0.1312759031397584 -9.121374881975633e-07   0.1355194967387545 6.639717175242994e-07
  0.8520589471375724    179.9999990666263   0.1334973577111715 4.667294512825795e-07   0.1319919982534826 -4.432611104452101e-07   0.1355266949694995 1.877098854591537e-06
  0.1344667218387783 7.471558040823091e-07   0.1310236994046017 -1.093605443204215e-06   0.1317734524777245 -1.564381155943107e-07   0.1301746891625341 -1.187087815872241e-06
  0.1305010297406416 -1.067319425283265e-06   0.1299382872925059 -1.192198826559675e-06   0.1297658136803597 -1.315782645412458e-06
  0.1331018007884129 -2.567387452892276e-06   0.1325615866391578 -2.306107315937401e-07   0.1317222519879241 -6.50847033659209e-07   0.1328445047712991 1.034839954601606e-07
  0.1334973577111713 4.667294512826275e-07   0.8482614695945567    179.9999989493922    0.133010728306929 9.295355687769908e-08   0.1326090410286425 1.89819142214117e-07
  0.1324385965382666 -2.39103475257417e-08   0.1313855728062848 -7.595670049309211e-07   0.1336181364745252 1.07436328863566e-06   0.1304182391705321 -1.367579399318317e-06
  0.1308666114735982 -7.188181844812048e-07   0.1301611150356388 -1.317996886234606e-06   0.1300259257519513 -1.285955555664888e-06
  0.1323636423224558 -3.053782979092499e-06   0.1327080151992329 -1.592548092226859e-07   0.1330851866385069 4.598986169211458e-07   0.1318292947507735 -6.69584732061764e-07
  0.1319919982534819 -4.432611104450113e-07   0.1330107283069292 9.295355687765972e-08   0.8486910568315024    179.9999988895737   0.1315926063378929 -5.855492957390664e-07
  0.1316167327537685 -7.288263429833089e-07   0.1324380778648507 -1.233243843690267e-07   0.1310240421546317 -8.086218636184109e-07   0.1317590647023535 -4.275775864739718e-07
  0.1333336117646359  8.7632697276443e-07   0.1310048165069331 -9.407970587925985e-07   0.1309332381648318 -8.573574421382922e-07
  0.1334309222280028 -2.769396503120814e-06   0.1327902071092841 -4.180682594223701e-08   0.1310214385314399 -9.097102274763764e-07    0.134355105873817 7.424202518858099e-07
  0.1355266949694987 1.877098854591673e-06   0.1326090410286426 1.898191422140619e-07   0.1315926063378927 -5.855492957390028e-07   0.8503890089449913    179.9999991302203
  0.1352400840703329 7.971932234414058e-07   0.1314232521296796 -9.672607011658796e-07   0.1322356991884678 -1.692187206025009e-08   0.1301829349922003 -1.062333746676657e-06
  0.1305092217062027 -1.034410601904697e-06   0.1298324516994704 -9.90815113869107e-07   0.1296393479698372 -1.163369561239053e-06
  0.1341650211193511 -2.30011688824729e-06    0.133067649014133 -4.232405625825658e-08    0.131130032264003 -9.760133500175895e-07   0.1363769799194537 2.372936938340726e-06
  0.1344667218387783 7.471558040823096e-07   0.1324385965382666 -2.391034752574975e-08    0.131616732753769 -7.288263429834424e-07   0.1352400840703323 7.971932234415596e-07
  0.8506276283351228    179.9999989757061   0.1306256937383831 -1.608145205609796e-06   0.1313955357287404 -5.379186478645675e-07   0.1300682004178782 -1.263083349831859e-06
  0.1303894076245354 -1.045989697084015e-06   0.1299195061011283 -1.112998343906528e-06   0.1297274660961464 -1.231895911330172e-06
  0.1309526352900065 -3.5887791769196e-06   0.1317500652403264 -3.36977823828523e-07   0.1306308748747483 -8.301805477279913e-07    0.130590854676282 -1.584064940625455e-06
  0.1310236994046019 -1.093605443204277e-06    0.131385572806285 -7.595670049309517e-07    0.132438077864851 -1.233243843690986e-07   0.1314232521296797 -9.672607011658877e-07
  0.1306256937383831 -1.608145205609814e-06    0.846884867652358    179.9999975913004   0.1438722858063661 -1.940117483757519e-06   0.1301598994983432 -5.40944514109247e-07
   0.133324118600846 3.282562559041606e-07   0.1293965875831712 -1.627774914222396e-06   0.1293112490282448 -9.807484178182723e-07
  0.1315511260611639 -3.237314112076314e-06   0.1317542145741487 -4.420699654794901e-07    0.130278459870507 -1.464839063002357e-06   0.1313151300414774 -6.352026743034059e-07
  0.1317734524777241 -1.564381155942068e-07   0.1336181364745253 1.074363288635651e-06   0.1310240421546318 -8.086218636184344e-07   0.1322356991884681 -1.692187206030722e-08
  0.1313955357287403 -5.379186478645364e-07   0.1438722858063663 -1.940117483757585e-06   0.8470150680642129    179.9999980426281   0.1298164536019846 -1.167560397766415e-06
  0.1303095075166335 -8.002572954224569e-07   0.1291186675920765 -1.276438954160455e-06   0.1289523558655413 -1.358181703916204e-06
  0.1305541533283111 -3.580416148002585e-06   0.1320400841022294 -6.859178267616381e-08   0.1330046757489979 2.090748436202021e-07    0.130069931927381 -1.308923643668158e-06
  0.1301746891625336 -1.187087815872136e-06   0.1304182391705321 -1.367579399318316e-06   0.1317590647023534 -4.275775864739405e-07      0.1301829349922 -1.062333746676579e-06
  0.1300682004178783 -1.26308334983189e-06   0.1301598994983433 -5.409445141092703e-07   0.1298164536019844 -1.16756039776637e-06   0.8463431594149157    179.9999979073664
  0.1439138307077348 -2.328848938661482e-06   0.1308627115680167 -2.220368691813958e-08   0.1333182893761964 5.244565410770467e-07
  0.1308601402752206 -3.511903685311946e-06   0.1318391359743107 -4.957936371112646e-07   0.1309666465453428 -5.609733162361076e-07   0.1303927412171385 -1.123324010855874e-06
  0.1305010297406415 -1.067319425283218e-06   0.1308666114735985 -7.188181844813081e-07    0.133333611764636 8.763269727644048e-07   0.1305092217062025 -1.03441060190461e-06
  0.1303894076245353 -1.045989697083985e-06   0.1333241186008456 3.282562559042405e-07   0.1303095075166334 -8.00257295422448e-07   0.1439138307077347 -2.328848938661483e-06
  0.8467837943318658    179.9999980149334   0.1298396997842697 -7.839831579249353e-07    0.129738090290531 -6.312486199909979e-07
  0.1304974202388025 -3.59078245656696e-06    0.132424046337582 4.985479572613344e-08   0.1336892781698054 4.187892665406168e-07   0.1299389580819904 -1.166749977301457e-06
  0.1299382872925059 -1.192198826559666e-06   0.1301611150356387 -1.317996886234567e-06   0.1310048165069335 -9.407970587927253e-07   0.1298324516994701 -9.908151138690363e-07
  0.1299195061011283 -1.11299834390652e-06   0.1293965875831714 -1.627774914222403e-06   0.1291186675920771 -1.276438954160622e-06   0.1308627115680167 -2.220368691813935e-08
  0.1298396997842698 -7.839831579249588e-07   0.8433016114300009    179.9999977213015   0.1466780643283871 -1.302567807918604e-06
   0.130341596757968 -3.682516967236272e-06   0.1318918555859606 -6.212313320314056e-07   0.1345671934151739 1.134225640890525e-06   0.1297656406970785 -1.301487688870299e-06
  0.1297658136803594 -1.315782645412366e-06   0.1300259257519508 -1.285955555664756e-06   0.1309332381648314 -8.57357442138158e-07   0.1296393479698368 -1.163369561238958e-06
  0.1297274660961464 -1.231895911330189e-06   0.1293112490282449 -9.80748417818292e-07   0.1289523558655408 -1.358181703916082e-06   0.1333182893761962 5.244565410770942e-07
  0.1297380902905309 -6.312486199909405e-07   0.1466780643283869 -1.302567807918534e-06   0.8446561281184294    179.9999978553164

!
             1.16591   0.8515286808585529    179.9999922557322   0.1335113269463513 -3.605386659734968e-06   0.1318631832285633 -3.960905362842608e-06   0.1344828519611385 -2.386755847345173e-06
  0.1338528592025868 -3.036699810894644e-06   0.1331018007884121 -2.993342705201429e-06   0.1323636423224549 -3.560436113153492e-06   0.1334309222280021 -3.228867076953407e-06
  0.1341650211193504 -2.681729281176212e-06   0.1309526352900056 -4.184193530162085e-06   0.1315511260611632 -3.774416896410714e-06   0.1305541533283101 -4.1744429911174e-06
  0.1308601402752195 -4.09456362574173e-06   0.1304974202388008 -4.186529173935465e-06   0.1303415967579664 -4.293483357269977e-06
  0.1335113269463509 -3.605386659734878e-06   0.8550757994761602    179.9999988153078    0.133021389710956 -4.919174295385297e-08    0.132965279517318 -1.144993563207227e-07
  0.1327509424149503 -1.537975497992244e-07   0.1325615866391577 -2.688713580724076e-07   0.1327080151992324 -1.856767746206625e-07   0.1327902071092835 -4.874299643409913e-08
  0.1330676490141326 -4.934604043195322e-08   0.1317500652403262 -3.928858145798488e-07   0.1317542145741486 -5.154137934521626e-07   0.1320400841022293 -7.997184533992527e-08
  0.1318391359743102 -5.780507594442178e-07   0.1324240463375817 5.812620488514522e-08   0.1318918555859596 -7.242998223284201e-07
  0.1318631832285633 -3.960905362842632e-06   0.1330213897109565 -4.919174295401228e-08   0.8475078589715619    179.9999985138109   0.1312513437356126 -1.127028509361407e-06
   0.131275903139758 -1.063470218864301e-06   0.1317222519879236 -7.588290650134676e-07   0.1330851866385063 5.362003964546917e-07   0.1310214385314399 -1.060640251316988e-06
  0.1311300322640032 -1.137943724919068e-06   0.1306308748747481 -9.679158024014595e-07   0.1302784598705069 -1.707870511945053e-06   0.1330046757489981 2.437624509251361e-07
  0.1309666465453431 -6.540443991329121e-07   0.1336892781698054 4.882705937524319e-07   0.1345671934151741 1.322405016970582e-06
  0.1344828519611383 -2.386755847345125e-06    0.132965279517318 -1.144993563207263e-07   0.1312513437356123 -1.127028509361309e-06   0.8516981150197358    179.9999987935133
  0.1355194967387545 7.741312651787482e-07   0.1328445047712991 1.206530251469402e-07   0.1318292947507731 -7.806755349580384e-07   0.1343551058738176 8.655951958760038e-07
  0.1363769799194532 2.766630905780978e-06   0.1305908546762815 -1.846877154924489e-06    0.131315130041477 -7.40589149996967e-07   0.1300699319273806 -1.52608716538903e-06
  0.1303927412171383 -1.309694697496918e-06   0.1299389580819904 -1.360325466035567e-06   0.1297656406970782 -1.517417511330668e-06
  0.1338528592025867 -3.036699810894636e-06   0.1327509424149505 -1.537975497992827e-07   0.1312759031397582 -1.063470218864375e-06   0.1355194967387547 7.741312651786851e-07
  0.8520589471375712    179.9999989117703   0.1334973577111716 5.441645345448334e-07   0.1319919982534825 -5.168025612791564e-07   0.1355266949694998 2.188528325556739e-06
  0.1344667218387787 8.711164235374962e-07   0.1310236994046014 -1.275045522286146e-06   0.1317734524777245 -1.823927633525767e-07   0.1301746891625339 -1.38403755540355e-06
  0.1305010297406415 -1.244398391131961e-06   0.1299382872925057 -1.389996533874153e-06   0.1297658136803596 -1.534084144112795e-06
  0.1331018007884119 -2.993342705201352e-06   0.1325615866391578 -2.688713580724567e-07   0.1317222519879239 -7.588290650135698e-07   0.1328445047712992 1.206530251469316e-07
  0.1334973577111714 5.441645345448895e-07    0.848261469594556    179.9999987750858    0.133010728306929 1.083754814992779e-07   0.1326090410286427 2.213120360988127e-07
  0.1324385965382666 -2.78773132837603e-08   0.1313855728062847 -8.855867667189701e-07   0.1336181364745258 1.252610901853034e-06   0.1304182391705318 -1.594474497459125e-06
  0.1308666114735981 -8.380773094684655e-07   0.1301611150356385 -1.536665749629711e-06   0.1300259257519512 -1.499308441905189e-06
  0.1323636423224547 -3.560436113153434e-06   0.1327080151992329 -1.856767746208317e-07   0.1330851866385069 5.362003964545027e-07   0.1318292947507733 -7.806755349580921e-07
  0.1319919982534818 -5.168025612789248e-07   0.1330107283069292 1.08375481499232e-07   0.8486910568315014    179.9999987053428   0.1315926063378929 -6.826977793951125e-07
  0.1316167327537684 -8.497459215476304e-07   0.1324380778648509 -1.437851329797389e-07   0.1310240421546316 -9.427803170113111e-07   0.1317590647023535 -4.98516983845873e-07
  0.1333336117646364 1.021718380815641e-06   0.1310048165069329 -1.096884698816801e-06   0.1309332381648317 -9.996016153634067e-07
  0.1334309222280018 -3.228867076953284e-06   0.1327902071092842 -4.874299643432477e-08   0.1310214385314397 -1.060640251316942e-06   0.1343551058738175 8.655951958760712e-07
  0.1355266949694991 2.188528325556896e-06   0.1326090410286428 2.213120360987485e-07   0.1315926063378927 -6.826977793950383e-07   0.8503890089449904    179.9999989859151
  0.1352400840703332 9.294555511424742e-07   0.1314232521296794 -1.127738924096231e-06   0.1322356991884678 -1.972937985376509e-08   0.1301829349922001 -1.238585538587735e-06
  0.1305092217062025 -1.206029664866646e-06   0.1298324516994703 -1.155201249411117e-06    0.129639347969837 -1.356384205144195e-06
    0.13416502111935 -2.681729281176091e-06    0.133067649014133 -4.934604043208451e-08   0.1311300322640028 -1.137943724918965e-06   0.1363769799194541 2.766630905780735e-06
  0.1344667218387787 8.711164235374969e-07   0.1324385965382666 -2.787731328376969e-08   0.1316167327537689 -8.497459215477862e-07   0.1352400840703327 9.294555511426529e-07
  0.8506276283351214    179.9999988057656   0.1306256937383826 -1.874952576672387e-06   0.1313955357287403 -6.271647307317584e-07    0.130068200417878 -1.472641508402403e-06
  0.1303894076245353 -1.219529847727184e-06   0.1299195061011282 -1.297655899144041e-06   0.1297274660961463 -1.436279761978937e-06
  0.1309526352900054 -4.184193530162013e-06   0.1317500652403263 -3.928858145799054e-07   0.1306308748747483 -9.67915802401526e-07   0.1305908546762816 -1.846877154924498e-06
  0.1310236994046016 -1.275045522286219e-06   0.1313855728062849 -8.855867667190061e-07   0.1324380778648512 -1.437851329798228e-07   0.1314232521296794 -1.12773892409624e-06
  0.1306256937383827 -1.874952576672407e-06   0.8468848676523543     179.999997191673   0.1438722858063649 -2.262002375487389e-06   0.1301598994983432 -6.306926184451318e-07
  0.1333241186008463 3.827172513211306e-07   0.1293965875831709 -1.897839050240933e-06   0.1293112490282448 -1.143464387818503e-06
  0.1315511260611628 -3.774416896410596e-06   0.1317542145741486 -5.154137934521741e-07   0.1302784598705067 -1.707870511944989e-06   0.1313151300414773 -7.405891499970583e-07
  0.1317734524777242 -1.823927633524555e-07   0.1336181364745258 1.252610901853025e-06   0.1310240421546317 -9.427803170113384e-07   0.1322356991884681 -1.972937985383172e-08
  0.1313955357287402 -6.271647307317221e-07    0.143872285806365 -2.262002375487467e-06   0.8470150680642105    179.9999977178805   0.1298164536019844 -1.361270343359796e-06
  0.1303095075166334 -9.330279833059738e-07   0.1291186675920764 -1.488212941045188e-06   0.1289523558655412 -1.583517630412909e-06
  0.1305541533283101 -4.1744429911174e-06   0.1320400841022294 -7.997184533998403e-08   0.1330046757489981 2.437624509251643e-07   0.1300699319273808 -1.526087165389081e-06
  0.1301746891625334 -1.384037555403429e-06   0.1304182391705317 -1.594474497459125e-06   0.1317590647023534 -4.985169838458363e-07   0.1301829349921998 -1.238585538587644e-06
  0.1300682004178781 -1.472641508402439e-06   0.1301598994983433 -6.306926184451587e-07   0.1298164536019842 -1.361270343359743e-06   0.8463431594149132    179.9999975601776
  0.1439138307077334 -2.71522826607442e-06   0.1308627115680168 -2.588750061479096e-08   0.1333182893761968 6.114691258070288e-07
  0.1308601402752196 -4.094563625741756e-06   0.1318391359743107 -5.780507594443597e-07   0.1309666465453428 -6.540443991328384e-07   0.1303927412171383 -1.309694697496927e-06
  0.1305010297406413 -1.244398391131906e-06   0.1308666114735984 -8.380773094685862e-07   0.1333336117646364 1.021718380815612e-06   0.1305092217062022 -1.206029664866545e-06
  0.1303894076245352 -1.21952984772715e-06   0.1333241186008459 3.827172513212238e-07   0.1303095075166334 -9.330279833059635e-07   0.1439138307077333 -2.715228266074422e-06
  0.8467837943318632     179.999997685591   0.1298396997842697 -9.140538036562535e-07   0.1297380902905311 -7.359790785337135e-07
  0.1304974202388015 -4.1865291739357e-06   0.1324240463375821 5.812620488502146e-08   0.1336892781698054 4.882705937523851e-07   0.1299389580819903 -1.360325466035518e-06
  0.1299382872925057 -1.389996533874142e-06   0.1301611150356384 -1.536665749629665e-06   0.1310048165069333 -1.096884698816948e-06   0.1298324516994701 -1.155201249411034e-06
  0.1299195061011282 -1.297655899144032e-06    0.129396587583171 -1.897839050240943e-06    0.129118667592077 -1.488212941045382e-06   0.1308627115680169 -2.588750061479072e-08