! Touchstone file exported from Ansys Full-Wave Spice
! Project: 0000_PSI_S-parameter_Sweep
!  Design: unknown
! Creation time: Thu Jun 12 21:02:40 2025
! Notes: ! Touchstone(R) file created by SIwave 2025 R1
!      : ! Touchstone(R) file created on Thu Jun 12 21:02:40 2025

# HZ S RI R 0.1
! Modal data exported
! Port[1] = BGA1_BGA1_GRP_1_1_VDD_075_BGA1_GRP_1_1_VSS
! Port[2] = DIE1_DIE1_GRP_0_0_VDD_075_DIE1_GRP_0_0_VSS
! Port[3] = DIE1_DIE1_GRP_0_1_VDD_075_DIE1_GRP_0_1_VSS
! Port[4] = DIE1_DIE1_GRP_1_0_VDD_075_DIE1_GRP_1_0_VSS
! Port[5] = DIE1_DIE1_GRP_1_1_VDD_075_DIE1_GRP_1_1_VSS
! Port[6] = DIE1_DIE1_GRP_2_0_VDD_075_DIE1_GRP_2_0_VSS
! Port[7] = DIE1_DIE1_GRP_2_1_VDD_075_DIE1_GRP_2_1_VSS
! Port[8] = VDD_075_C37_2
! Port[9] = VDD_075_C38_2
! Port[10] = VDD_075_C78_2

0.0000000000000000e+00 -7.4455931422317190e-01 0.0000000000000000e+00 1.8164096763835597e-01 0.0000000000000000e+00 2.1212468369785031e-01 0.0000000000000000e+00 1.8785313824371563e-01 0.0000000000000000e+00 
                       2.0107880251393981e-01 0.0000000000000000e+00 1.8917443524527891e-01 0.0000000000000000e+00 1.9516244367831856e-01 0.0000000000000000e+00 1.9173481915341151e-01 0.0000000000000000e+00 
                       1.9261092173823224e-01 0.0000000000000000e+00 1.9317910231405294e-01 0.0000000000000000e+00 1.8164096763835597e-01 0.0000000000000000e+00 -6.0946811863274797e-01 0.0000000000000000e+00 
                       1.8506440363092141e-01 0.0000000000000000e+00 1.8313882066450526e-01 0.0000000000000000e+00 1.8742642109151630e-01 0.0000000000000000e+00 1.8090088724046255e-01 0.0000000000000000e+00 
                       1.8298743075830254e-01 0.0000000000000000e+00 1.6781542382070469e-01 0.0000000000000000e+00 1.6862693432208881e-01 0.0000000000000000e+00 1.7186682946585480e-01 0.0000000000000000e+00 
                       2.1212468369785031e-01 0.0000000000000000e+00 1.8506440363092141e-01 0.0000000000000000e+00 -7.7736511831387400e-01 0.0000000000000000e+00 1.8886029344377012e-01 0.0000000000000000e+00 
                       2.0142926488560653e-01 0.0000000000000000e+00 1.8989068751917659e-01 0.0000000000000000e+00 1.9559197349919716e-01 0.0000000000000000e+00 2.0083314981566774e-01 0.0000000000000000e+00 
                       2.0176340495634643e-01 0.0000000000000000e+00 2.0180725686532958e-01 0.0000000000000000e+00 1.8785313824371563e-01 0.0000000000000000e+00 1.8313882066450526e-01 0.0000000000000000e+00 
                       1.8886029344377012e-01 0.0000000000000000e+00 -7.2021649023635614e-01 0.0000000000000000e+00 2.0558297009090187e-01 0.0000000000000000e+00 2.3022175502652464e-01 0.0000000000000000e+00 
                       2.0812387903183172e-01 0.0000000000000000e+00 1.7100698130701414e-01 0.0000000000000000e+00 1.7181105489630222e-01 0.0000000000000000e+00 1.7361759753175654e-01 0.0000000000000000e+00 
                       2.0107880251393981e-01 0.0000000000000000e+00 1.8742642109151630e-01 0.0000000000000000e+00 2.0142926488560653e-01 0.0000000000000000e+00 2.0558297009090187e-01 0.0000000000000000e+00 
                       -7.7389065806350821e-01 0.0000000000000000e+00 2.0950494897141361e-01 0.0000000000000000e+00 2.1869311770536820e-01 0.0000000000000000e+00 1.8229137511284485e-01 0.0000000000000000e+00 
                       1.8314017934769272e-01 0.0000000000000000e+00 1.8474357834420091e-01 0.0000000000000000e+00 1.8917443524527891e-01 0.0000000000000000e+00 1.8090088724046255e-01 0.0000000000000000e+00 
                       1.8989068751917659e-01 0.0000000000000000e+00 2.3022175502652464e-01 0.0000000000000000e+00 2.0950494897141361e-01 0.0000000000000000e+00 -7.3701200297819169e-01 0.0000000000000000e+00 
                       2.1830175464583368e-01 0.0000000000000000e+00 1.7190441744183804e-01 0.0000000000000000e+00 1.7271073121623901e-01 0.0000000000000000e+00 1.7440238567139099e-01 0.0000000000000000e+00 
                       1.9516244367831856e-01 0.0000000000000000e+00 1.8298743075830254e-01 0.0000000000000000e+00 1.9559197349919716e-01 0.0000000000000000e+00 2.0812387903183172e-01 0.0000000000000000e+00 
                       2.1869311770536820e-01 0.0000000000000000e+00 2.1830175464583368e-01 0.0000000000000000e+00 -7.5318840697658318e-01 0.0000000000000000e+00 1.7702399435815777e-01 0.0000000000000000e+00 
                       1.7785033698052660e-01 0.0000000000000000e+00 1.7945347631902020e-01 0.0000000000000000e+00 1.9173481915341151e-01 0.0000000000000000e+00 1.6781542382070469e-01 0.0000000000000000e+00 
                       2.0083314981566774e-01 0.0000000000000000e+00 1.7100698130701414e-01 0.0000000000000000e+00 1.8229137511284485e-01 0.0000000000000000e+00 1.7190441744183804e-01 0.0000000000000000e+00 
                       1.7702399435815777e-01 0.0000000000000000e+00 -6.9405495071744916e-01 0.0000000000000000e+00 2.4682484142194930e-01 0.0000000000000000e+00 1.8461994828582889e-01 0.0000000000000000e+00 
                       1.9261092173823224e-01 0.0000000000000000e+00 1.6862693432208881e-01 0.0000000000000000e+00 2.0176340495634643e-01 0.0000000000000000e+00 1.7181105489630222e-01 0.0000000000000000e+00 
                       1.8314017934769272e-01 0.0000000000000000e+00 1.7271073121623901e-01 0.0000000000000000e+00 1.7785033698052660e-01 0.0000000000000000e+00 2.4682484142194930e-01 0.0000000000000000e+00 
                       -7.0125869095286708e-01 0.0000000000000000e+00 1.8592028607345953e-01 0.0000000000000000e+00 1.9317910231405294e-01 0.0000000000000000e+00 1.7186682946585480e-01 0.0000000000000000e+00 
                       2.0180725686532958e-01 0.0000000000000000e+00 1.7361759753175654e-01 0.0000000000000000e+00 1.8474357834420091e-01 0.0000000000000000e+00 1.7440238567139099e-01 0.0000000000000000e+00 
                       1.7945347631902020e-01 0.0000000000000000e+00 1.8461994828582889e-01 0.0000000000000000e+00 1.8592028607345953e-01 0.0000000000000000e+00 -6.4961046087078955e-01 0.0000000000000000e+00 

1.0000000000000000e+00 -7.4458410464370817e-01 1.3884420221699127e-08 1.8163010983461020e-01 -1.0724442195852606e-09 2.1212057253059180e-01 -2.9773122195031365e-10 1.8784313746438547e-01 -1.8454405471613585e-09 
                       2.0108783312000189e-01 -1.6938785598654319e-10 1.8916756915514801e-01 -7.6332712532433690e-10 1.9515297585948541e-01 -8.3233757312878189e-10 1.9172158748856541e-01 -3.3051750000708356e-09 
                       1.9259848036853655e-01 -2.9820026158182487e-09 1.9316587029617444e-01 -2.5878923222159365e-09 1.8163010983461020e-01 -1.0724442195852606e-09 -6.0948488692332936e-01 6.1045356124706973e-09 
                       1.8506818149431944e-01 2.7052260828919679e-10 1.8313455129597159e-01 -6.1170436962111829e-10 1.8744122175310227e-01 1.7775259680556344e-10 1.8089997386396695e-01 1.3901075845099552e-10 
                       1.8298459861642444e-01 -1.5717097414280481e-11 1.6781047703520613e-01 -2.0825771583403186e-09 1.6862270607332175e-01 -1.7989085884949152e-09 1.7186164590789776e-01 -1.1247782765622561e-09 
                       2.1212057253059180e-01 -2.9773122195031365e-10 1.8506818149431944e-01 2.7052260828919679e-10 -7.7735184045982841e-01 3.1166532326983340e-09 1.8886555365834737e-01 -1.3113946508771113e-09 
                       2.0145471272654644e-01 4.5671002838210451e-10 1.8989921454780934e-01 -5.4367396417664740e-10 1.9559839406075405e-01 -6.3095269014636958e-10 2.0083518080761761e-01 -6.9689408580461136e-10 
                       2.0176633615614170e-01 -3.4056413864080758e-10 2.0180941963246307e-01 -4.2214004932473893e-11 1.8784313746438547e-01 -1.8454405471613585e-09 1.8313455129597159e-01 -6.1170436962111829e-10 
                       1.8886555365834737e-01 -1.3113946508771113e-09 -7.2022513425545853e-01 1.4234387263091087e-08 2.0559909890858619e-01 -7.8375382447982053e-10 2.3021863745263399e-01 -4.4757009870527661e-10 
                       2.0811964618676421e-01 -5.8116312219914954e-10 1.7100323119726951e-01 -3.1981729063901014e-09 1.7180804457436283e-01 -2.9277116954762685e-09 1.7361377721733254e-01 -2.5474165801902420e-09 
                       2.0108783312000189e-01 -1.6938785598654319e-10 1.8744122175310227e-01 1.7775259680556344e-10 2.0145471272654644e-01 4.5671002838210451e-10 2.0559909890858619e-01 -7.8375382447982053e-10 
                       -7.7385156953273315e-01 2.3130903776553482e-09 2.0952464513099750e-01 8.2330974597018579e-10 2.1871065470828671e-01 1.7998435916723780e-09 1.8230533869294224e-01 -1.8518497254053883e-09 
                       1.8315501598583828e-01 -1.5250669085956815e-09 1.8475774772344708e-01 -1.2862205899514069e-09 1.8916756915514801e-01 -7.6332712532433690e-10 1.8089997386396695e-01 1.3901075845099552e-10 
                       1.8989921454780934e-01 -5.4367396417664740e-10 2.3021863745263399e-01 -4.4757009870527661e-10 2.0952464513099750e-01 8.2330974597018579e-10 -7.3701142202008074e-01 4.9267951855486593e-09 
                       2.1830030192182592e-01 2.0215657728453773e-09 1.7190358144486240e-01 -2.3641122973533264e-09 1.7271065284043408e-01 -2.0940928683061239e-09 1.7440153385213988e-01 -1.7260629512320932e-09 
                       1.9515297585948541e-01 -8.3233757312878189e-10 1.8298459861642444e-01 -1.5717097414280481e-11 1.9559839406075405e-01 -6.3095269014636958e-10 2.0811964618676421e-01 -5.8116312219914954e-10 
                       2.1871065470828671e-01 1.7998435916723780e-09 2.1830030192182592e-01 2.0215657728453773e-09 -7.5319409999718134e-01 4.9761806879081430e-09 1.7702099927492493e-01 -2.5695398279646295e-09 
                       1.7784811231208492e-01 -2.2311633479380486e-09 1.7945044955140388e-01 -1.9654575264590874e-09 1.9172158748856541e-01 -3.3051750000708356e-09 1.6781047703520613e-01 -2.0825771583403186e-09 
                       2.0083518080761761e-01 -6.9689408580461136e-10 1.7100323119726951e-01 -3.1981729063901014e-09 1.8230533869294224e-01 -1.8518497254053883e-09 1.7190358144486240e-01 -2.3641122973533264e-09 
                       1.7702099927492493e-01 -2.5695398279646295e-09 -6.9406728589582234e-01 1.3488671494801514e-08 2.4681453645591300e-01 5.1212334133286308e-09 1.8461262613864104e-01 -2.5515112929673390e-09 
                       1.9259848036853655e-01 -2.9820026158182487e-09 1.6862270607332175e-01 -1.7989085884949152e-09 2.0176633615614170e-01 -3.4056413864080758e-10 1.7180804457436283e-01 -2.9277116954762685e-09 
                       1.8315501598583828e-01 -1.5250669085956815e-09 1.7271065284043408e-01 -2.0940928683061239e-09 1.7784811231208492e-01 -2.2311633479380486e-09 2.4681453645591300e-01 5.1212334133286308e-09 
                       -7.0126854194003618e-01 1.0936807887562291e-08 1.8591372224450203e-01 -2.1679612660883416e-09 1.9316587029617444e-01 -2.5878923222159365e-09 1.7186164590789776e-01 -1.1247782765622561e-09 
                       2.0180941963246307e-01 -4.2214004932473893e-11 1.7361377721733254e-01 -2.5474165801902420e-09 1.8475774772344708e-01 -1.2862205899514069e-09 1.7440153385213988e-01 -1.7260629512320932e-09 
                       1.7945044955140388e-01 -1.9654575264590874e-09 1.8461262613864104e-01 -2.5515112929673390e-09 1.8591372224450203e-01 -2.1679612660883416e-09 -6.4962559067180292e-01 1.5989063696979865e-08 

1.1659100000000000e+00 -7.4458410464370828e-01 1.6187984380685737e-08 1.8163010983461059e-01 -1.2503734400556607e-09 2.1212057253059208e-01 -3.4712780898398541e-10 1.8784313746438586e-01 -2.1516175883402967e-09 
                       2.0108783312000239e-01 -1.9749099517311763e-10 1.8916756915514829e-01 -8.8997072868493143e-10 1.9515297585948560e-01 -9.7043069988736338e-10 1.9172158748856566e-01 -3.8535365843338664e-09 
                       1.9259848036853672e-01 -3.4767466698082371e-09 1.9316587029617482e-01 -3.0172495373939817e-09 1.8163010983461059e-01 -1.2503734400556607e-09 -6.0948488692332980e-01 7.1173391159346848e-09 
                       1.8506818149431983e-01 3.1540501423076967e-10 1.8313455129597200e-01 -7.1319224158434715e-10 1.8744122175310279e-01 2.0724353014199342e-10 1.8089997386396742e-01 1.6207403338501828e-10 
                       1.8298459861642483e-01 -1.8324721046001659e-11 1.6781047703520646e-01 -2.4280975346803288e-09 1.6862270607332205e-01 -2.0973655124099876e-09 1.7186164590789818e-01 -1.3113902404263543e-09 
                       2.1212057253059208e-01 -3.4712780898398541e-10 1.8506818149431983e-01 3.1540501423076967e-10 -7.7735184045982797e-01 3.6337371705360320e-09 1.8886555365834756e-01 -1.5289681374031661e-09 
                       2.0145471272654675e-01 5.3248278919163633e-10 1.8989921454780945e-01 -6.3387491157265952e-10 1.9559839406075397e-01 -7.3563405096769122e-10 2.0083518080761795e-01 -8.1251578358038658e-10 
                       2.0176633615614198e-01 -3.9706713488278138e-10 2.0180941963246349e-01 -4.9217730490475898e-11 1.8784313746438586e-01 -2.1516175883402967e-09 1.8313455129597200e-01 -7.1319224158434715e-10 
                       1.8886555365834756e-01 -1.5289681374031661e-09 -7.2022513425545842e-01 1.6596014453904925e-08 2.0559909890858663e-01 -9.1378642149893004e-10 2.3021863745263405e-01 -5.2182645378122306e-10 
                       2.0811964618676465e-01 -6.7758389580316852e-10 1.7100323119726976e-01 -3.7287817732884493e-09 1.7180804457436299e-01 -3.4134483428711229e-09 1.7361377721733290e-01 -2.9700584650090345e-09 
                       2.0108783312000239e-01 -1.9749099517311763e-10 1.8744122175310279e-01 2.0724353014199342e-10 2.0145471272654675e-01 5.3248278919163633e-10 2.0559909890858663e-01 -9.1378642149893004e-10 
                       -7.7385156953273271e-01 2.6968552022124007e-09 2.0952464513099778e-01 9.5990506592578621e-10 2.1871065470828721e-01 2.0984556419650344e-09 1.8230533869294252e-01 -2.1590901133461359e-09 
                       1.8315501598583844e-01 -1.7780907594001266e-09 1.8475774772344739e-01 -1.4996174480290534e-09 1.8916756915514829e-01 -8.8997072868493143e-10 1.8089997386396742e-01 1.6207403338501828e-10 
                       1.8989921454780945e-01 -6.3387491157265952e-10 2.3021863745263405e-01 -5.2182645378122306e-10 2.0952464513099778e-01 9.5990506592578621e-10 -7.3701142202008052e-01 5.7441997747828225e-09 
                       2.1830030192182659e-01 2.3569637502181532e-09 1.7190358144486259e-01 -2.7563421686069149e-09 1.7271065284043424e-01 -2.4415238160862033e-09 1.7440153385214019e-01 -2.0124340554694132e-09 
                       1.9515297585948560e-01 -9.7043069988736338e-10 1.8298459861642483e-01 -1.8324721046001659e-11 1.9559839406075397e-01 -7.3563405096769122e-10 2.0811964618676465e-01 -6.7758389580316852e-10 
                       2.1871065470828721e-01 2.0984556419650344e-09 2.1830030192182659e-01 2.3569637502181532e-09 -7.5319409999718034e-01 5.8017788258409108e-09 1.7702099927492498e-01 -2.9958521808203811e-09 
                       1.7784811231208497e-01 -2.6013356589953426e-09 1.7945044955140405e-01 -2.2915465846732355e-09 1.9172158748856566e-01 -3.8535365843338664e-09 1.6781047703520646e-01 -2.4280975346803288e-09 
                       2.0083518080761795e-01 -8.1251578358038658e-10 1.7100323119726976e-01 -3.7287817732884493e-09 1.8230533869294252e-01 -2.1590901133461359e-09 1.7190358144486259e-01 -2.7563421686069149e-09 
                       1.7702099927492498e-01 -2.9958521808203811e-09 -6.9406728589582212e-01 1.5726576982501987e-08 2.4681453645591306e-01 5.9708972489336067e-09 1.8461262613864141e-01 -2.9748325315843508e-09 
                       1.9259848036853672e-01 -3.4767466698082371e-09 1.6862270607332205e-01 -2.0973655124099876e-09 2.0176633615614198e-01 -3.9706713488278138e-10 1.7180804457436299e-01 -3.4134483428711229e-09 
                       1.8315501598583844e-01 -1.7780907594001266e-09 1.7271065284043424e-01 -2.4415238160862033e-09 1.7784811231208497e-01 -2.6013356589953426e-09 2.4681453645591306e-01 5.9708972489336067e-09 
                       -7.0126854194003618e-01 1.2751333684190717e-08 1.8591372224450242e-01 -2.5276477197434340e-09 1.9316587029617482e-01 -3.0172495373939817e-09 1.7186164590789818e-01 -1.3113902404263543e-09 
                       2.0180941963246349e-01 -4.9217730490475898e-11 1.7361377721733290e-01 -2.9700584650090345e-09 1.8475774772344739e-01 -1.4996174480290534e-09 1.7440153385214019e-01 -2.0124340554694132e-09 
                       1.7945044955140405e-01 -2.2915465846732355e-09 1.8461262613864141e-01 -2.9748325315843508e-09 1.8591372224450242e-01 -2.5276477197434340e-09 -6.4962559067180270e-01 1.8641809254934578e-08 

1.3593599999999999e+00 -7.4458410464370872e-01 1.8873925472150928e-08 1.8163010983461036e-01 -1.4578377746902785e-09 2.1212057253059180e-01 -4.0472391429793500e-10 1.8784313746438569e-01 -2.5086180625564923e-09 
                       2.0108783312000195e-01 -2.3025907630235835e-10 1.8916756915514804e-01 -1.0376363614485579e-09 1.9515297585948504e-01 -1.1314464037868349e-09 1.9172158748856549e-01 -4.4929226887438158e-09 
                       1.9259848036853655e-01 -4.0536150763605256e-09 1.9316587029617455e-01 -3.5178773075196866e-09 1.8163010983461036e-01 -1.4578377746902785e-09 -6.0948488692333136e-01 8.2982615298393692e-09 
                       1.8506818149431961e-01 3.6773761242804984e-10 1.8313455129597195e-01 -8.3152645218788613e-10 1.8744122175310243e-01 2.4162976965839977e-10 1.8089997386396731e-01 1.8896566429701853e-10 
                       1.8298459861642463e-01 -2.1365193865406500e-11 1.6781047703520638e-01 -2.8309720865532726e-09 1.6862270607332200e-01 -2.4453643793268396e-09 1.7186164590789799e-01 -1.5289785983732482e-09 
                       2.1212057253059180e-01 -4.0472391429793500e-10 1.8506818149431961e-01 3.6773761242804984e-10 -7.7735184045982797e-01 4.2366537379545056e-09 1.8886555365834726e-01 -1.7826574330129438e-09 
                       2.0145471272654630e-01 6.2083334377243536e-10 1.8989921454780903e-01 -7.3904864033387883e-10 1.9559839406075316e-01 -8.5769184927514363e-10 2.0083518080761800e-01 -9.4732994514421267e-10 
                       2.0176633615614203e-01 -4.6294926804383427e-10 2.0180941963246349e-01 -5.7384030155630336e-11 1.8784313746438569e-01 -2.5086180625564923e-09 1.8313455129597195e-01 -8.3152645218788613e-10 
                       1.8886555365834726e-01 -1.7826574330129438e-09 -7.2022513425545887e-01 1.9349656669756413e-08 2.0559909890858641e-01 -1.0654035991630566e-09 2.3021863745263388e-01 -6.0840888963152267e-10 
                       2.0811964618676471e-01 -7.9000990209180640e-10 1.7100323119726973e-01 -4.3474683227741066e-09 1.7180804457436299e-01 -3.9798141709217231e-09 1.7361377721733279e-01 -3.4628562028122629e-09 
                       2.0108783312000195e-01 -2.3025907630235835e-10 1.8744122175310243e-01 2.4162976965839977e-10 2.0145471272654630e-01 6.2083334377243536e-10 2.0559909890858641e-01 -1.0654035991630566e-09 
                       -7.7385156953273326e-01 3.1443225354049301e-09 2.0952464513099742e-01 1.1191743359494751e-09 2.1871065470828699e-01 2.4466353844235305e-09 1.8230533869294219e-01 -2.5173304433811441e-09 
                       1.8315501598583819e-01 -2.0731149533875110e-09 1.8475774772344697e-01 -1.7484368215325565e-09 1.8916756915514804e-01 -1.0376363614485579e-09 1.8089997386396731e-01 1.8896566429701853e-10 
                       1.8989921454780903e-01 -7.3904864033387883e-10 2.3021863745263388e-01 -6.0840888963152267e-10 2.0952464513099742e-01 1.1191743359494751e-09 -7.3701142202008085e-01 6.6972883031376859e-09 
                       2.1830030192182670e-01 2.7480356486574774e-09 1.7190358144486237e-01 -3.2136796932006257e-09 1.7271065284043402e-01 -2.8466260819806944e-09 1.7440153385213991e-01 -2.3463409337445724e-09 
                       1.9515297585948504e-01 -1.1314464037868349e-09 1.8298459861642463e-01 -2.1365193865406500e-11 1.9559839406075316e-01 -8.5769184927514363e-10 2.0811964618676471e-01 -7.9000990209180640e-10 
                       2.1871065470828699e-01 2.4466353844235305e-09 2.1830030192182670e-01 2.7480356486574774e-09 -7.5319409999717979e-01 6.7644209795770319e-09 1.7702099927492440e-01 -3.4929296611879716e-09 
                       1.7784811231208444e-01 -3.0329542091642137e-09 1.7945044955140343e-01 -2.6717643435336587e-09 1.9172158748856549e-01 -4.4929226887438158e-09 1.6781047703520638e-01 -2.8309720865532726e-09 
                       2.0083518080761800e-01 -9.4732994514421267e-10 1.7100323119726973e-01 -4.3474683227741066e-09 1.8230533869294219e-01 -2.5173304433811441e-09 1.7190358144486237e-01 -3.2136796932006257e-09 
                       1.7702099927492440e-01 -3.4929296611879716e-09 -6.9406728589582212e-01 1.8335960482325210e-08 2.4681453645591289e-01 6.9615998520183658e-09 1.8461262613864132e-01 -3.4684223918206158e-09 
                       1.9259848036853655e-01 -4.0536150763605256e-09 1.6862270607332200e-01 -2.4453643793268396e-09 2.0176633615614203e-01 -4.6294926804383427e-10 1.7180804457436299e-01 -3.9798141709217231e-09 
                       1.8315501598583819e-01 -2.0731149533875110e-09 1.7271065284043402e-01 -2.8466260819806944e-09 1.7784811231208444e-01 -3.0329542091642137e-09 2.4681453645591289e-01 6.9615998520183658e-09 
                       -7.0126854194003663e-01 1.4867059169419532e-08 1.8591372224450234e-01 -2.9470398271650002e-09 1.9316587029617455e-01 -3.5178773075196866e-09 1.7186164590789799e-01 -1.5289785983732482e-09 
                       2.0180941963246349e-01 -5.7384030155630336e-11 1.7361377721733279e-01 -3.4628562028122629e-09 1.8475774772344697e-01 -1.7484368215325565e-09 1.7440153385213991e-01 -2.3463409337445724e-09 
                       1.7945044955140343e-01 -2.6717643435336587e-09 1.8461262613864132e-01 -3.4684223918206158e-09 1.8591372224450234e-01 -2.9470398271650002e-09 -6.4962559067180303e-01 2.1734893626739866e-08 

1.4678000000000000e+00 -7.4458410464371005e-01 2.0379552001391335e-08 1.8163010983460948e-01 -1.5741336255058016e-09 2.1212057253059063e-01 -4.3700988757935897e-10 1.8784313746438452e-01 -2.7087376351208699e-09 
                       2.0108783312000073e-01 -2.4862749501586316e-10 1.8916756915514682e-01 -1.1204115545493672e-09 1.9515297585948377e-01 -1.2217050898385068e-09 1.9172158748856444e-01 -4.8513358651065202e-09 
                       1.9259848036853544e-01 -4.3769834394969037e-09 1.9316587029617349e-01 -3.7985083505479139e-09 1.8163010983460948e-01 -1.5741336255058016e-09 -6.0948488692333269e-01 8.9602373719792618e-09 
                       1.8506818149431867e-01 3.9707308444649266e-10 1.8313455129597098e-01 -8.9785967373119049e-10 1.8744122175310141e-01 2.6090526159101497e-10 1.8089997386396631e-01 2.0403999125417477e-10 
                       1.8298459861642374e-01 -2.3069555584819368e-11 1.6781047703520552e-01 -3.0568067530121684e-09 1.6862270607332111e-01 -2.6404380261919873e-09 1.7186164590789718e-01 -1.6509495543382346e-09 
                       2.1212057253059063e-01 -4.3700988757935897e-10 1.8506818149431867e-01 3.9707308444649266e-10 -7.7735184045982919e-01 4.5746236149544696e-09 1.8886555365834587e-01 -1.9248650685567695e-09 
                       2.0145471272654492e-01 6.7035897965977622e-10 1.8989921454780750e-01 -7.9800464461798798e-10 1.9559839406075163e-01 -9.2611235859536376e-10 2.0083518080761692e-01 -1.0229011391442208e-09 
                       2.0176633615614098e-01 -4.9988004269798430e-10 2.0180941963246246e-01 -6.1961716440669402e-11 1.8784313746438452e-01 -2.7087376351208699e-09 1.8313455129597098e-01 -8.9785967373119049e-10 
                       1.8886555365834587e-01 -1.9248650685567695e-09 -7.2022513425546042e-01 2.0893233624748545e-08 2.0559909890858491e-01 -1.1503938635713225e-09 2.3021863745263221e-01 -6.5694339088009330e-10 
                       2.0811964618676354e-01 -8.5303123076493093e-10 1.7100323119726848e-01 -4.6942781919994751e-09 1.7180804457436177e-01 -4.2972952266196177e-09 1.7361377721733151e-01 -3.7390980564044412e-09 
                       2.0108783312000073e-01 -2.4862749501586316e-10 1.8744122175310141e-01 2.6090526159101497e-10 2.0145471272654492e-01 6.7035897965977622e-10 2.0559909890858491e-01 -1.1503938635713225e-09 
                       -7.7385156953273460e-01 3.3951540563198314e-09 2.0952464513099611e-01 1.2084540451354626e-09 2.1871065470828593e-01 2.6418104238546553e-09 1.8230533869294102e-01 -2.7181450269488903e-09 
                       1.8315501598583700e-01 -2.2384932084369643e-09 1.8475774772344583e-01 -1.8879145819292868e-09 1.8916756915514682e-01 -1.1204115545493672e-09 1.8089997386396631e-01 2.0403999125417477e-10 
                       1.8989921454780750e-01 -7.9800464461798798e-10 2.3021863745263221e-01 -6.5694339088009330e-10 2.0952464513099611e-01 1.2084540451354626e-09 -7.3701142202008252e-01 7.2315499733479755e-09 
                       2.1830030192182562e-01 2.9672542413823705e-09 1.7190358144486109e-01 -3.4700440300551900e-09 1.7271065284043274e-01 -3.0737095120994950e-09 1.7440153385213863e-01 -2.5335151998167732e-09 
                       1.9515297585948377e-01 -1.2217050898385068e-09 1.8298459861642374e-01 -2.3069555584819368e-11 1.9559839406075163e-01 -9.2611235859536376e-10 2.0811964618676354e-01 -8.5303123076493093e-10 
                       2.1871065470828593e-01 2.6418104238546553e-09 2.1830030192182562e-01 2.9672542413823705e-09 -7.5319409999718046e-01 7.3040380137095485e-09 1.7702099927492299e-01 -3.7715705594848063e-09 
                       1.7784811231208303e-01 -3.2749015621034440e-09 1.7945044955140202e-01 -2.8848985573365769e-09 1.9172158748856444e-01 -4.8513358651065202e-09 1.6781047703520552e-01 -3.0568067530121684e-09 
                       2.0083518080761692e-01 -1.0229011391442208e-09 1.7100323119726848e-01 -4.6942781919994751e-09 1.8230533869294102e-01 -2.7181450269488903e-09 1.7190358144486109e-01 -3.4700440300551900e-09 
                       1.7702099927492299e-01 -3.7715705594848063e-09 -6.9406728589582323e-01 1.9798672020070894e-08 2.4681453645591178e-01 7.5169464040827268e-09 1.8461262613864032e-01 -3.7451082758181519e-09 
                       1.9259848036853544e-01 -4.3769834394969037e-09 1.6862270607332111e-01 -2.6404380261919873e-09 2.0176633615614098e-01 -4.9988004269798430e-10 1.7180804457436177e-01 -4.2972952266196177e-09 
                       1.8315501598583700e-01 -2.2384932084369643e-09 1.7271065284043274e-01 -3.0737095120994950e-09 1.7784811231208303e-01 -3.2749015621034440e-09 2.4681453645591178e-01 7.5169464040827268e-09 
                       -7.0126854194003763e-01 1.6053046617366147e-08 1.8591372224450137e-01 -3.1821335463645709e-09 1.9316587029617349e-01 -3.7985083505479139e-09 1.7186164590789718e-01 -1.6509495543382346e-09 
                       2.0180941963246246e-01 -6.1961716440669402e-11 1.7361377721733151e-01 -3.7390980564044412e-09 1.8475774772344583e-01 -1.8879145819292868e-09 1.7440153385213863e-01 -2.5335151998167732e-09 
                       1.7945044955140202e-01 -2.8848985573365769e-09 1.8461262613864032e-01 -3.7451082758181519e-09 1.8591372224450137e-01 -3.1821335463645709e-09 -6.4962559067180425e-01 2.3468747694422027e-08 

1.5848899999999999e+00 -7.4458410464370739e-01 2.2005278765155242e-08 1.8163010983461197e-01 -1.6997061191776350e-09 2.1212057253059349e-01 -4.7187123635775304e-10 1.8784313746438719e-01 -2.9248202687889658e-09 
                       2.0108783312000356e-01 -2.6846111907334445e-10 1.8916756915514960e-01 -1.2097895276525015e-09 1.9515297585948627e-01 -1.3191634962748902e-09 1.9172158748856705e-01 -5.2383388058644367e-09 
                       1.9259848036853813e-01 -4.7261461257838747e-09 1.9316587029617605e-01 -4.1015246625561566e-09 1.8163010983461197e-01 -1.6997061191776350e-09 -6.0948488692333180e-01 9.6750174468465894e-09 
                       1.8506818149432117e-01 4.2874857665110601e-10 1.8313455129597334e-01 -9.6948413836850958e-10 1.8744122175310390e-01 2.8171831315102528e-10 1.8089997386396889e-01 2.2031676095950590e-10 
                       1.8298459861642602e-01 -2.4909870520695420e-11 1.6781047703520788e-01 -3.3006557124821119e-09 1.6862270607332358e-01 -2.8510722328191957e-09 1.7186164590789940e-01 -1.7826498427413737e-09 
                       2.1212057253059349e-01 -4.7187123635775304e-10 1.8506818149432117e-01 4.2874857665110601e-10 -7.7735184045982630e-01 4.9395525419715359e-09 1.8886555365834834e-01 -2.0784162682284836e-09 
                       2.0145471272654750e-01 7.2383515688350854e-10 1.8989921454781006e-01 -8.6166342908304121e-10 1.9559839406075380e-01 -9.9999060908370640e-10 2.0083518080761961e-01 -1.1045004676524679e-09 
                       2.0176633615614362e-01 -5.3975669769162138e-10 2.0180941963246501e-01 -6.6904554278201754e-11 1.8784313746438719e-01 -2.9248202687889658e-09 1.8313455129597334e-01 -9.6948413836850958e-10 
                       1.8886555365834834e-01 -2.0784162682284836e-09 -7.2022513425545820e-01 2.2559938029377983e-08 2.0559909890858752e-01 -1.2421635988797171e-09 2.3021863745263471e-01 -7.0934937373604615e-10 
                       2.0811964618676615e-01 -9.2107962074309383e-10 1.7100323119727090e-01 -5.0687522576070865e-09 1.7180804457436416e-01 -4.6401009890421379e-09 1.7361377721733384e-01 -4.0373750637775621e-09 
                       2.0108783312000356e-01 -2.6846111907334445e-10 1.8744122175310390e-01 2.8171831315102528e-10 2.0145471272654750e-01 7.2383515688350854e-10 2.0559909890858752e-01 -1.2421635988797171e-09 
                       -7.7385156953273193e-01 3.6659938086398470e-09 2.0952464513099886e-01 1.3048553832914266e-09 2.1871065470828863e-01 2.8525541100022205e-09 1.8230533869294352e-01 -2.9349781112969950e-09 
                       1.8315501598583953e-01 -2.4170632927631413e-09 1.8475774772344822e-01 -2.0385181508074217e-09 1.8916756915514960e-01 -1.2097895276525015e-09 1.8089997386396889e-01 2.2031676095950590e-10 