! Touchstone file exported from Ansys Full-Wave Spice
! Project: 0000_PSI_S-parameter_Sweep
!  Design: unknown
! Creation time: Fri Apr 18 11:24:56 2025
! Notes: ! Touchstone(R) file created by SIwave 2025 R1
!      : ! Touchstone(R) file created on Fri Apr 18 11:24:56 2025

# HZ S RI R 0.1
! Modal data exported
! Port[1] = PORT_1_DIE1_VDDCR_ECCX02_Group_DIE1_GRP_1_0_VSS
! Port[2] = PORT_2_BGA1_VDDCR_ECCX02_Group_BGA1_GRP_1_1_VSS
! Port[3] = VDDCR_ECCX02_C16_1
! Port[4] = VDDCR_ECCX02_C17_1
! Port[5] = VDDCR_ECCX02_C23_1
! Port[6] = VDDCR_ECCX02_C24_1
! Port[7] = VDDCR_ECCX02_C62_1
! Port[8] = VDDCR_ECCX02_C98_1
! Port[9] = VDDCR_ECCX02_C99_1
! Port[10] = VDDCR_ECCX02_C109_1

0.0000000000000000e+00 -7.7922508734093077e-01 0.0000000000000000e+00 2.1419936470227691e-01 0.0000000000000000e+00 1.9567202363876474e-01 0.0000000000000000e+00 1.9346007781414848e-01 0.0000000000000000e+00 
                       1.9183014677249111e-01 0.0000000000000000e+00 1.9329432090936269e-01 0.0000000000000000e+00 2.0404801277967760e-01 0.0000000000000000e+00 1.9601143690382386e-01 0.0000000000000000e+00 
                       1.9933741665897525e-01 0.0000000000000000e+00 1.9137228716116669e-01 0.0000000000000000e+00 2.1419936470227691e-01 0.0000000000000000e+00 -7.4794900494298022e-01 0.0000000000000000e+00 
                       1.9174510077938334e-01 0.0000000000000000e+00 1.8963868198880535e-01 0.0000000000000000e+00 1.8807308101190628e-01 0.0000000000000000e+00 1.8945704564689619e-01 0.0000000000000000e+00 
                       1.9983283611193253e-01 0.0000000000000000e+00 1.9210489180834889e-01 0.0000000000000000e+00 1.9531060281306648e-01 0.0000000000000000e+00 1.8758740008012181e-01 0.0000000000000000e+00 
                       1.9567202363876474e-01 0.0000000000000000e+00 1.9174510077938334e-01 0.0000000000000000e+00 -7.7746950730741871e-01 0.0000000000000000e+00 1.9917079729925335e-01 0.0000000000000000e+00 
                       1.9899993578096126e-01 0.0000000000000000e+00 2.0331329525879890e-01 0.0000000000000000e+00 1.9490746494034528e-01 0.0000000000000000e+00 1.9768755082088349e-01 0.0000000000000000e+00 
                       1.9581329587367552e-01 0.0000000000000000e+00 2.0016004291511330e-01 0.0000000000000000e+00 1.9346007781414848e-01 0.0000000000000000e+00 1.8963868198880535e-01 0.0000000000000000e+00 
                       1.9917079729925335e-01 0.0000000000000000e+00 -7.7495554597892624e-01 0.0000000000000000e+00 2.0425977353133462e-01 0.0000000000000000e+00 1.9891022795220820e-01 0.0000000000000000e+00 
                       1.9357263004560235e-01 0.0000000000000000e+00 2.0215346255639041e-01 0.0000000000000000e+00 1.9609280522876249e-01 0.0000000000000000e+00 1.9769708956218440e-01 0.0000000000000000e+00 
                       1.9183014677249111e-01 0.0000000000000000e+00 1.8807308101190628e-01 0.0000000000000000e+00 1.9899993578096126e-01 0.0000000000000000e+00 2.0425977353133462e-01 0.0000000000000000e+00 
                       -7.6811657454085025e-01 0.0000000000000000e+00 2.0113829510714515e-01 0.0000000000000000e+00 1.9146629148380681e-01 0.0000000000000000e+00 1.9713234509277605e-01 0.0000000000000000e+00 
                       1.9318138072580721e-01 0.0000000000000000e+00 2.0203532503438432e-01 0.0000000000000000e+00 1.9329432090936269e-01 0.0000000000000000e+00 1.8945704564689619e-01 0.0000000000000000e+00 
                       2.0331329525879890e-01 0.0000000000000000e+00 1.9891022795220820e-01 0.0000000000000000e+00 2.0113829510714515e-01 0.0000000000000000e+00 -7.7558815280852444e-01 0.0000000000000000e+00 
                       1.9254901356628792e-01 0.0000000000000000e+00 1.9588955451581327e-01 0.0000000000000000e+00 1.9357446133528944e-01 0.0000000000000000e+00 2.0746193851648490e-01 0.0000000000000000e+00 
                       2.0404801277967760e-01 0.0000000000000000e+00 1.9983283611193253e-01 0.0000000000000000e+00 1.9490746494034528e-01 0.0000000000000000e+00 1.9357263004560235e-01 0.0000000000000000e+00 
                       1.9146629148380681e-01 0.0000000000000000e+00 1.9254901356628792e-01 0.0000000000000000e+00 -7.6851498807935481e-01 0.0000000000000000e+00 1.9744406245431115e-01 0.0000000000000000e+00 
                       2.0404853033940928e-01 0.0000000000000000e+00 1.9064614635774316e-01 0.0000000000000000e+00 1.9601143690382386e-01 0.0000000000000000e+00 1.9210489180834889e-01 0.0000000000000000e+00 
                       1.9768755082088349e-01 0.0000000000000000e+00 2.0215346255639041e-01 0.0000000000000000e+00 1.9713234509277605e-01 0.0000000000000000e+00 1.9588955451581327e-01 0.0000000000000000e+00 
                       1.9744406245431115e-01 0.0000000000000000e+00 -7.7509509409680799e-01 0.0000000000000000e+00 2.0249704726804046e-01 0.0000000000000000e+00 1.9417474267618084e-01 0.0000000000000000e+00 
                       1.9933741665897525e-01 0.0000000000000000e+00 1.9531060281306648e-01 0.0000000000000000e+00 1.9581329587367552e-01 0.0000000000000000e+00 1.9609280522876249e-01 0.0000000000000000e+00 
                       1.9318138072580721e-01 0.0000000000000000e+00 1.9357446133528944e-01 0.0000000000000000e+00 2.0404853033940928e-01 0.0000000000000000e+00 2.0249704726804046e-01 0.0000000000000000e+00 
                       -7.7157152282443864e-01 0.0000000000000000e+00 1.9171598258117484e-01 0.0000000000000000e+00 1.9137228716116669e-01 0.0000000000000000e+00 1.8758740008012181e-01 0.0000000000000000e+00 
                       2.0016004291511330e-01 0.0000000000000000e+00 1.9769708956218440e-01 0.0000000000000000e+00 2.0203532503438432e-01 0.0000000000000000e+00 2.0746193851648490e-01 0.0000000000000000e+00 
                       1.9064614635774316e-01 0.0000000000000000e+00 1.9417474267618084e-01 0.0000000000000000e+00 1.9171598258117484e-01 0.0000000000000000e+00 -7.6285095488479115e-01 0.0000000000000000e+00 

1.0000000000000000e+00 -7.7922888921553723e-01 1.7587719463295965e-09 2.1418684258583734e-01 -5.6083590948078501e-10 1.9566957186485992e-01 -3.7525533956424594e-10 1.9346038516932451e-01 -9.4033435921684378e-11 
                       1.9182796323577250e-01 9.6945485608613241e-11 1.9329290865233048e-01 -3.3394247677173500e-10 2.0405493227412153e-01 -2.2752743539212061e-10 1.9601160673314394e-01 -1.9966855783315674e-11 
                       1.9933746013395809e-01 -4.4413133825582058e-11 1.9136934203412131e-01 -2.0729769897289272e-10 2.1418684258583734e-01 -5.6083590948078501e-10 -7.4797163387413013e-01 9.0747720332547173e-09 
                       1.9173482096505570e-01 -1.2727657985379474e-09 1.8963119263424194e-01 -9.2162438924303077e-10 1.8806321435168405e-01 -7.2832835272885271e-10 1.8944787842974237e-01 -1.2237843529044460e-09 
                       1.9983140246092276e-01 -1.4294589483671039e-09 1.9209716598071916e-01 -8.5771578936813728e-10 1.9530262093979106e-01 -9.6224520349035909e-10 1.8757680717187580e-01 -1.1160737765513498e-09 
                       1.9566957186485992e-01 -3.7525533956424594e-10 1.9173482096505570e-01 -1.2727657985379474e-09 -7.7747125169756681e-01 3.7931598888965604e-09 1.9917199078454884e-01 -3.8045215352226587e-10 
                       1.9899854942278464e-01 -2.9069960870323884e-10 2.0331271721848942e-01 2.1294568653819641e-10 1.9491506001336717e-01 -5.5655603916380118e-10 1.9768861019552678e-01 -3.9984441695922449e-10 
                       1.9581424428114352e-01 -4.4421185234918821e-10 2.0015785602504799e-01 -2.8746143772497410e-10 1.9346038516932451e-01 -9.4033435921684378e-11 1.8963119263424194e-01 -9.2162438924303077e-10 
                       1.9917199078454884e-01 -3.8045215352226587e-10 -7.7495137813209514e-01 3.2851541769221213e-09 2.0426117888474754e-01 -1.9596988568986232e-10 1.9891244687979651e-01 -4.4857667377456903e-10 
                       1.9358289988544122e-01 -3.3963595506276952e-10 2.0215733101119349e-01 -1.4091938226057676e-10 1.9609649183133179e-01 -3.1827874571824129e-10 1.9769769156360717e-01 -4.5371839836947716e-10 
                       1.9182796323577250e-01 9.6945485608613241e-11 1.8806321435168405e-01 -7.2832835272885271e-10 1.9899854942278464e-01 -2.9069960870323884e-10 2.0426117888474754e-01 -1.9596988568986232e-10 
                       -7.6811794905159658e-01 2.3988775672213299e-09 2.0113792612426543e-01 -2.7064815111101846e-10 1.9147397185982640e-01 -1.8951198282193972e-10 1.9713360808630703e-01 -2.7207282253371255e-10 
                       1.9318252857101126e-01 -2.1739104923080323e-10 2.0203331386638312e-01 -3.3247235898670288e-10 1.9329290865233048e-01 -3.3394247677173500e-10 1.8944787842974237e-01 -1.2237843529044460e-09 
                       2.0331271721848942e-01 2.1294568653819641e-10 1.9891244687979651e-01 -4.4857667377456903e-10 2.0113792612426543e-01 -2.7064815111101846e-10 -7.7558763394612296e-01 3.3664237851091835e-09 
                       1.9255752325342684e-01 -5.3814973489923493e-10 1.9589162526001169e-01 -4.1959079980059161e-10 1.9357640986564245e-01 -4.5943138004334166e-10 2.0746075249688301e-01 1.0961212701433932e-10 
                       2.0405493227412153e-01 -2.2752743539212061e-10 1.9983140246092276e-01 -1.4294589483671039e-09 1.9491506001336717e-01 -5.5655603916380118e-10 1.9358289988544122e-01 -3.3963595506276952e-10 
                       1.9147397185982640e-01 -1.8951198282193972e-10 1.9255752325342684e-01 -5.3814973489923493e-10 -7.6849658247919206e-01 3.6727835831026354e-09 1.9745437159436552e-01 -8.6323106235909004e-11 
                       2.0405898429686586e-01 5.3567566384433230e-11 1.9065303089588320e-01 -3.8703474260298196e-10 1.9601160673314394e-01 -1.9966855783315674e-11 1.9209716598071916e-01 -8.5771578936813728e-10 
                       1.9768861019552678e-01 -3.9984441695922449e-10 2.0215733101119349e-01 -1.4091938226057676e-10 1.9713360808630703e-01 -2.7207282253371255e-10 1.9589162526001169e-01 -4.1959079980059161e-10 
                       1.9745437159436552e-01 -8.6323106235909004e-11 -7.7509132647485168e-01 2.5059481860858082e-09 2.0250062283445508e-01 1.6551414477450264e-11 1.9417522423172012e-01 -3.3817967718877539e-10 
                       1.9933746013395809e-01 -4.4413133825582058e-11 1.9530262093979106e-01 -9.6224520349035909e-10 1.9581424428114352e-01 -4.4421185234918821e-10 1.9609649183133179e-01 -3.1827874571824129e-10 
                       1.9318252857101126e-01 -2.1739104923080323e-10 1.9357640986564245e-01 -4.5943138004334166e-10 2.0405898429686586e-01 5.3567566384433230e-11 2.0250062283445508e-01 1.6551414477450264e-11 
                       -7.7156812756191751e-01 2.7264244142236853e-09 1.9171636220431015e-01 -3.5664258571651042e-10 1.9136934203412131e-01 -2.0729769897289272e-10 1.8757680717187580e-01 -1.1160737765513498e-09 
                       2.0015785602504799e-01 -2.8746143772497410e-10 1.9769769156360717e-01 -4.5371839836947716e-10 2.0203331386638312e-01 -3.3247235898670288e-10 2.0746075249688301e-01 1.0961212701433932e-10 
                       1.9065303089588320e-01 -3.8703474260298196e-10 1.9417522423172012e-01 -3.3817967718877539e-10 1.9171636220431015e-01 -3.5664258571651042e-10 -7.6285400046795770e-01 3.3632121544480983e-09 

1.1659100000000000e+00 -7.7922888921553768e-01 2.0505697999444116e-09 2.1418684258583695e-01 -6.5388419522361917e-10 1.9566957186485973e-01 -4.3751395295249059e-10 1.9346038516932429e-01 -1.0963452327663408e-10 
                       1.9182796323577234e-01 1.1302971112479867e-10 1.9329290865233029e-01 -3.8934687309389829e-10 2.0405493227412136e-01 -2.6527651219895843e-10 1.9601160673314372e-01 -2.3279556827320689e-11 
                       1.9933746013395778e-01 -5.1781716859774873e-11 1.9136934203412115e-01 -2.4169046021067070e-10 2.1418684258583695e-01 -6.5388419522361917e-10 -7.4797163387413079e-01 1.0580367461290615e-08 
                       1.9173482096505562e-01 -1.4839303721752171e-09 1.8963119263424177e-01 -1.0745310916640948e-09 1.8806321435168399e-01 -8.4916530973013839e-10 1.8944787842974226e-01 -1.4268224148967583e-09 
                       1.9983140246092262e-01 -1.6666204824916858e-09 1.9209716598071910e-01 -1.0000194159836807e-09 1.9530262093979089e-01 -1.1218913052014326e-09 1.8757680717187575e-01 -1.3012415768198553e-09 
                       1.9566957186485973e-01 -4.3751395295249059e-10 1.9173482096505562e-01 -1.4839303721752171e-09 -7.7747125169756748e-01 4.4224830460640438e-09 1.9917199078454820e-01 -4.4357297031399005e-10 
                       1.9899854942278411e-01 -3.3892958078395544e-10 2.0331271721848876e-01 2.4827550539056246e-10 1.9491506001336692e-01 -6.4889425162262389e-10 1.9768861019552633e-01 -4.6618260417790330e-10 
                       1.9581424428114311e-01 -5.1791104077361323e-10 2.0015785602504732e-01 -3.3515416485916285e-10 1.9346038516932429e-01 -1.0963452327663408e-10 1.8963119263424177e-01 -1.0745310916640948e-09 
                       1.9917199078454820e-01 -4.4357297031399005e-10 -7.7495137813209602e-01 3.8301941064165186e-09 2.0426117888474671e-01 -2.2848324942607296e-10 1.9891244687979584e-01 -5.2300002972131487e-10 
                       1.9358289988544092e-01 -3.9598495636853306e-10 2.0215733101119282e-01 -1.6429931697280166e-10 1.9609649183133121e-01 -3.7108437242134930e-10 1.9769769156360645e-01 -5.2899481784414214e-10 
                       1.9182796323577234e-01 1.1302971112479867e-10 1.8806321435168399e-01 -8.4916530973013839e-10 1.9899854942278411e-01 -3.3892958078395544e-10 2.0426117888474671e-01 -2.2848324942607296e-10 
                       -7.6811794905159747e-01 2.7968753443975613e-09 2.0113792612426468e-01 -3.1555138586282846e-10 1.9147397185982615e-01 -2.2095391589327887e-10 1.9713360808630642e-01 -3.1721242452114425e-10 
                       1.9318252857101070e-01 -2.5345839820999230e-10 2.0203331386638243e-01 -3.8763284806721920e-10 1.9329290865233029e-01 -3.8934687309389829e-10 1.8944787842974226e-01 -1.4268224148967583e-09 
                       2.0331271721848876e-01 2.4827550539056246e-10 1.9891244687979584e-01 -5.2300002972131487e-10 2.0113792612426468e-01 -3.1555138586282846e-10 -7.7558763394612351e-01 3.9249471552971216e-09 
                       1.9255752325342668e-01 -6.2743415741794382e-10 1.9589162526001125e-01 -4.8920510939624515e-10 1.9357640986564206e-01 -5.3565564030756168e-10 2.0746075249688237e-01 1.2779787500619482e-10 
                       2.0405493227412136e-01 -2.6527651219895843e-10 1.9983140246092262e-01 -1.6666204824916858e-09 1.9491506001336692e-01 -6.4889425162262389e-10 1.9358289988544092e-01 -3.9598495636853306e-10 
                       1.9147397185982615e-01 -2.2095391589327887e-10 1.9255752325342668e-01 -6.2743415741794382e-10 -7.6849658247919239e-01 4.2821351073743647e-09 1.9745437159436541e-01 -1.0064497279278197e-10 
                       2.0405898429686564e-01 6.2454961321742901e-11 1.9065303089588301e-01 -4.5124767674812313e-10 1.9601160673314372e-01 -2.3279556827320689e-11 1.9209716598071910e-01 -1.0000194159836807e-09 
                       1.9768861019552633e-01 -4.6618260417790330e-10 2.0215733101119282e-01 -1.6429931697280166e-10 1.9713360808630642e-01 -3.1721242452114425e-10 1.9589162526001125e-01 -4.8920510939624515e-10 
                       1.9745437159436541e-01 -1.0064497279278197e-10 -7.7509132647485224e-01 2.9217100496397966e-09 2.0250062283445458e-01 1.9297459652072513e-11 1.9417522423171979e-01 -3.9428706743242256e-10 
                       1.9933746013395778e-01 -5.1781716859774873e-11 1.9530262093979089e-01 -1.1218913052014326e-09 1.9581424428114311e-01 -5.1791104077361323e-10 1.9609649183133121e-01 -3.7108437242134930e-10 
                       1.9318252857101070e-01 -2.5345839820999230e-10 1.9357640986564206e-01 -5.3565564030756168e-10 2.0405898429686564e-01 6.2454961321742901e-11 2.0250062283445458e-01 1.9297459652072513e-11 
                       -7.7156812756191806e-01 3.1787654887881007e-09 1.9171636220430985e-01 -4.1581315711256151e-10 1.9136934203412115e-01 -2.4169046021067070e-10 1.8757680717187575e-01 -1.3012415768198553e-09 
                       2.0015785602504732e-01 -3.3515416485916285e-10 1.9769769156360645e-01 -5.2899481784414214e-10 2.0203331386638243e-01 -3.8763284806721920e-10 2.0746075249688237e-01 1.2779787500619482e-10 
                       1.9065303089588301e-01 -4.5124767674812313e-10 1.9417522423171979e-01 -3.9428706743242256e-10 1.9171636220430985e-01 -4.1581315711256151e-10 -7.6285400046795859e-01 3.9212026829912998e-09 

1.3593599999999999e+00 -7.7922888921553901e-01 2.3908042329612963e-09 2.1418684258583534e-01 -7.6237790191410272e-10 1.9566957186485887e-01 -5.1010709839232683e-10 1.9346038516932357e-01 -1.2782529145695816e-10 
                       1.9182796323577167e-01 1.3178381531440667e-10 1.9329290865232943e-01 -4.5394804522702173e-10 2.0405493227412003e-01 -3.0929169457640999e-10 1.9601160673314291e-01 -2.7142145079667329e-11 
                       1.9933746013395678e-01 -6.0373437599200389e-11 1.9136934203412043e-01 -2.8179220007791917e-10 2.1418684258583534e-01 -7.6237790191410272e-10 -7.4797163387413290e-01 1.2335882111119853e-08 
                       1.9173482096505473e-01 -1.7301469159024200e-09 1.8963119263424111e-01 -1.2528193297638676e-09 1.8806321435168336e-01 -9.9006042956628423e-10 1.8944787842974148e-01 -1.6635634979658792e-09 
                       1.9983140246092129e-01 -1.9431493160545525e-09 1.9209716598071835e-01 -1.1659445354384267e-09 1.9530262093978998e-01 -1.3080376398173658e-09 1.8757680717187505e-01 -1.5171460488957328e-09 
                       1.9566957186485887e-01 -5.1010709839232683e-10 1.9173482096505473e-01 -1.7301469159024200e-09 -7.7747125169756837e-01 5.1562698265676797e-09 1.9917199078454739e-01 -5.1717143941408645e-10 
                       1.9899854942278317e-01 -3.9516542008867444e-10 2.0331271721848793e-01 2.8946984845064624e-10 1.9491506001336595e-01 -7.5656001739991967e-10 1.9768861019552547e-01 -5.4353250663970728e-10 
                       1.9581424428114230e-01 -6.0384382361111767e-10 2.0015785602504654e-01 -3.9076357998764960e-10 1.9346038516932357e-01 -1.2782529145695816e-10 1.8963119263424111e-01 -1.2528193297638676e-09 
                       1.9917199078454739e-01 -5.1717143941408645e-10 -7.7495137813209691e-01 4.4657071819417814e-09 2.0426117888474593e-01 -2.6639362381406192e-10 1.9891244687979498e-01 -6.0977718726404101e-10 
                       1.9358289988543997e-01 -4.6168753187580765e-10 2.0215733101119202e-01 -1.9156017147208065e-10 1.9609649183133038e-01 -4.3265539578169715e-10 1.9769769156360578e-01 -6.1676664200972883e-10 
                       1.9182796323577167e-01 1.3178381531440667e-10 1.8806321435168336e-01 -9.9006042956628423e-10 1.9899854942278317e-01 -3.9516542008867444e-10 2.0426117888474593e-01 -2.6639362381406192e-10 
                       -7.6811794905159869e-01 3.2609382097765771e-09 2.0113792612426384e-01 -3.6790827069636176e-10 1.9147397185982529e-01 -2.5761500897026032e-10 1.9713360808630565e-01 -3.6984491204163829e-10 
                       1.9318252857100998e-01 -2.9551269668468324e-10 2.0203331386638143e-01 -4.5194962591408975e-10 1.9329290865232943e-01 -4.5394804522702173e-10 1.8944787842974148e-01 -1.6635634979658792e-09 
                       2.0331271721848793e-01 2.8946984845064624e-10 1.9891244687979498e-01 -6.0977718726404101e-10 2.0113792612426384e-01 -3.6790827069636176e-10 -7.7558763394612451e-01 4.5761818365251054e-09 
                       1.9255752325342579e-01 -7.3153922363442438e-10 1.9589162526001042e-01 -5.7037494961873001e-10 1.9357640986564120e-01 -6.2453264077908656e-10 2.0746075249688140e-01 1.4900234097617102e-10 
                       2.0405493227412003e-01 -3.0929169457640999e-10 1.9983140246092129e-01 -1.9431493160545525e-09 1.9491506001336595e-01 -7.5656001739991967e-10 1.9358289988543997e-01 -4.6168753187580765e-10 
                       1.9147397185982529e-01 -2.5761500897026032e-10 1.9255752325342579e-01 -7.3153922363442438e-10 -7.6849658247919383e-01 4.9926350915248116e-09 1.9745437159436449e-01 -1.1734417769545283e-10 
                       2.0405898429686448e-01 7.2817607038052824e-11 1.9065303089588226e-01 -5.2611954770651778e-10 1.9601160673314291e-01 -2.7142145079667329e-11 1.9209716598071835e-01 -1.1659445354384267e-09 
                       1.9768861019552547e-01 -5.4353250663970728e-10 2.0215733101119202e-01 -1.9156017147208065e-10 1.9713360808630565e-01 -3.6984491204163829e-10 1.9589162526001042e-01 -5.7037494961873001e-10 
                       1.9745437159436449e-01 -1.1734417769545283e-10 -7.7509132647485313e-01 3.4064857262361410e-09 2.0250062283445383e-01 2.2499330782340794e-11 1.9417522423171912e-01 -4.5970792598411375e-10 
                       1.9933746013395678e-01 -6.0373437599200389e-11 1.9530262093978998e-01 -1.3080376398173658e-09 1.9581424428114230e-01 -6.0384382361111767e-10 1.9609649183133038e-01 -4.3265539578169715e-10 
                       1.9318252857100998e-01 -2.9551269668468324e-10 1.9357640986564120e-01 -6.2453264077908656e-10 2.0405898429686448e-01 7.2817607038052824e-11 2.0250062283445383e-01 2.2499330782340794e-11 
                       -7.7156812756191928e-01 3.7061922917174872e-09 1.9171636220430910e-01 -4.8480566532186066e-10 1.9136934203412043e-01 -2.8179220007791917e-10 1.8757680717187505e-01 -1.5171460488957328e-09 
                       2.0015785602504654e-01 -3.9076357998764960e-10 1.9769769156360578e-01 -6.1676664200972883e-10 2.0203331386638143e-01 -4.5194962591408975e-10 2.0746075249688140e-01 1.4900234097617102e-10 
                       1.9065303089588226e-01 -5.2611954770651778e-10 1.9417522423171912e-01 -4.5970792598411375e-10 1.9171636220430910e-01 -4.8480566532186066e-10 -7.6285400046795993e-01 4.5718160742663752e-09 

1.4678000000000000e+00 -7.7922888921553735e-01 2.5815254628211403e-09 2.1418684258583692e-01 -8.2319494793745849e-10 1.9566957186486078e-01 -5.5079978741397728e-10 1.9346038516932562e-01 -1.3802227724804303e-10 
                       1.9182796323577372e-01 1.4229658377467275e-10 1.9329290865233156e-01 -4.9016076740747721e-10 2.0405493227412186e-01 -3.3396476966953049e-10 1.9601160673314477e-01 -2.9307350920118654e-11 
                       1.9933746013395864e-01 -6.5189597830545276e-11 1.9136934203412251e-01 -3.0427156255303521e-10 2.1418684258583692e-01 -8.2319494793745849e-10 -7.4797163387413135e-01 1.3319950390415726e-08 
                       1.9173482096505681e-01 -1.8681656390954612e-09 1.8963119263424333e-01 -1.3527602785327344e-09 1.8806321435168558e-01 -1.0690403561371242e-09 1.8944787842974375e-01 -1.7962706731958494e-09 
                       1.9983140246092318e-01 -2.0981598444135502e-09 1.9209716598072038e-01 -1.2589552356371995e-09 1.9530262093979192e-01 -1.4123835096837202e-09 1.8757680717187730e-01 -1.6381730892236582e-09 
                       1.9566957186486078e-01 -5.5079978741397728e-10 1.9173482096505681e-01 -1.8681656390954612e-09 -7.7747125169756648e-01 5.5676000849221027e-09 1.9917199078454939e-01 -5.5842767094129211e-10 
                       1.9899854942278522e-01 -4.2668888565593334e-10 2.0331271721848998e-01 3.1256167869949552e-10 1.9491506001336786e-01 -8.1691295428566363e-10 1.9768861019552730e-01 -5.8689163521395292e-10 
                       1.9581424428114422e-01 -6.5201415687943966e-10 2.0015785602504846e-01 -4.2193589829442950e-10 1.9346038516932562e-01 -1.3802227724804303e-10 1.8963119263424333e-01 -1.3527602785327344e-09 
                       1.9917199078454939e-01 -5.5842767094129211e-10 -7.7495137813209514e-01 4.8219493008863576e-09 2.0426117888474776e-01 -2.8764459821718742e-10 1.9891244687979714e-01 -6.5842084176736351e-10 
                       1.9358289988544203e-01 -4.9851765484275136e-10 2.0215733101119376e-01 -2.0684146928336320e-10 1.9609649183133226e-01 -4.6716954296632320e-10 1.9769769156360770e-01 -6.6596786512801802e-10 
                       1.9182796323577372e-01 1.4229658377467275e-10 1.8806321435168558e-01 -1.0690403561371242e-09 1.9899854942278522e-01 -4.2668888565593334e-10 2.0426117888474776e-01 -2.8764459821718742e-10 
                       -7.6811794905159680e-01 3.5210724931677170e-09 2.0113792612426593e-01 -3.9725735620197060e-10 1.9147397185982756e-01 -2.7816568838876892e-10 1.9713360808630759e-01 -3.9934848891615307e-10 
                       1.9318252857101209e-01 -3.1908658206239375e-10 2.0203331386638343e-01 -4.8800292852205613e-10 1.9329290865233156e-01 -4.9016076740747721e-10 1.8944787842974375e-01 -1.7962706731958494e-09 
                       2.0331271721848998e-01 3.1256167869949552e-10 1.9891244687979714e-01 -6.5842084176736351e-10 2.0113792612426593e-01 -3.9725735620197060e-10 -7.7558763394612229e-01 4.9412368317814211e-09 
                       1.9255752325342784e-01 -7.8989618088764863e-10 1.9589162526001244e-01 -6.1587537594835918e-10 1.9357640986564320e-01 -6.7435337962908768e-10 2.0746075249688339e-01 1.6088868003144792e-10 
                       2.0405493227412186e-01 -3.3396476966953049e-10 1.9983140246092318e-01 -2.0981598444135502e-09 1.9491506001336786e-01 -8.1691295428566363e-10 1.9358289988544203e-01 -4.9851765484275136e-10 
                       1.9147397185982756e-01 -2.7816568838876892e-10 1.9255752325342784e-01 -7.8989618088764863e-10 -7.6849658247919206e-01 5.3909117432767348e-09 1.9745437159436630e-01 -1.2670505533462957e-10 
                       2.0405898429686631e-01 7.8626473937779201e-11 1.9065303089588434e-01 -5.6808959519290700e-10 1.9601160673314477e-01 -2.9307350920118654e-11 1.9209716598072038e-01 -1.2589552356371995e-09 
                       1.9768861019552730e-01 -5.8689163521395292e-10 2.0215733101119376e-01 -2.0684146928336320e-10 1.9713360808630759e-01 -3.9934848891615307e-10 1.9589162526001244e-01 -6.1587537594835918e-10 
                       1.9745437159436630e-01 -1.2670505533462957e-10 -7.7509132647485179e-01 3.6782307475352365e-09 2.0250062283445547e-01 2.4294166169462956e-11 1.9417522423172109e-01 -4.9638013017950632e-10 
                       1.9933746013395864e-01 -6.5189597830545276e-11 1.9530262093979192e-01 -1.4123835096837202e-09 1.9581424428114422e-01 -6.5201415687943966e-10 1.9609649183133226e-01 -4.6716954296632320e-10 
                       1.9318252857101209e-01 -3.1908658206239375e-10 1.9357640986564320e-01 -6.7435337962908768e-10 2.0405898429686631e-01 7.8626473937779201e-11 2.0250062283445547e-01 2.4294166169462956e-11 
                       -7.7156812756191751e-01 4.0018457551953176e-09 1.9171636220431121e-01 -5.2347998731690247e-10 1.9136934203412251e-01 -3.0427156255303521e-10 1.8757680717187730e-01 -1.6381730892236582e-09 
                       2.0015785602504846e-01 -4.2193589829442950e-10 1.9769769156360770e-01 -6.6596786512801802e-10 2.0203331386638343e-01 -4.8800292852205613e-10 2.0746075249688339e-01 1.6088868003144792e-10 
                       1.9065303089588434e-01 -5.6808959519290700e-10 1.9417522423172109e-01 -4.9638013017950632e-10 1.9171636220431121e-01 -5.2347998731690247e-10 -7.6285400046795815e-01 4.9365228002976741e-09 

1.5848899999999999e+00 -7.7922888921554034e-01 2.7874600700177599e-09 2.1418684258583390e-01 -8.8886322457725483e-10 1.9566957186485801e-01 -5.9473843512381830e-10 1.9346038516932268e-01 -1.4903265225964388e-10 
                       1.9182796323577100e-01 1.5364793068398806e-10 1.9329290865232873e-01 -5.2926209201348696e-10 2.0405493227411892e-01 -3.6060595707961553e-10 1.9601160673314205e-01 -3.1645270064299862e-11 
                       1.9933746013395587e-01 -7.0389931670591853e-11 1.9136934203411976e-01 -3.2854405012717264e-10 2.1418684258583390e-01 -8.8886322457725483e-10 -7.4797163387413468e-01 1.4382515447779386e-08 
                       1.9173482096505415e-01 -2.0171937864481839e-09 1.8963119263424050e-01 -1.4606732782706807e-09 1.8806321435168294e-01 -1.1543203229568142e-09 1.8944787842974101e-01 -1.9395635830765540e-09 
                       1.9983140246092029e-01 -2.2655351926791035e-09 1.9209716598071774e-01 -1.3593851774134540e-09 1.9530262093978923e-01 -1.5250528005600218e-09 1.8757680717187455e-01 -1.7688541677208836e-09 
                       1.9566957186485801e-01 -5.9473843512381830e-10 1.9173482096505415e-01 -2.0171937864481839e-09 -7.7747125169756948e-01 6.0117411763124239e-09 1.9917199078454617e-01 -6.0297481359732138e-10 
                       1.9899854942278211e-01 -4.6072690283899529e-10 2.0331271721848693e-01 3.3749548913580894e-10 1.9491506001336514e-01 -8.8208010091343565e-10 1.9768861019552444e-01 -6.3370941799587432e-10 
                       1.9581424428114128e-01 -7.0402692267116558e-10 2.0015785602504549e-01 -4.5559475803750881e-10 1.9346038516932268e-01 -1.4903265225964388e-10 1.8963119263424050e-01 -1.4606732782706807e-09 
                       1.9917199078454617e-01 -6.0297481359732138e-10 -7.7495137813209847e-01 5.2066080034643092e-09 2.0426117888474457e-01 -3.1059071213295171e-10 1.9891244687979401e-01 -7.1094468449998143e-10 
                       1.9358289988543920e-01 -5.3828562882256711e-10 2.0215733101119082e-01 -2.2334171975273833e-10 1.9609649183132932e-01 -5.0443680130281379e-10 1.9769769156360462e-01 -7.1909375239342291e-10 
                       1.9182796323577100e-01 1.5364793068398806e-10 1.8806321435168294e-01 -1.1543203229568142e-09 1.9899854942278211e-01 -4.6072690283899529e-10 2.0426117888474457e-01 -3.1059071213295171e-10 
                       -7.6811794905160025e-01 3.8019570675138424e-09 2.0113792612426268e-01 -4.2894754821586478e-10 1.9147397185982468e-01 -3.0035564645775892e-10 1.9713360808630465e-01 -4.3120549570703852e-10 
                       1.9318252857100907e-01 -3.4454090001694232e-10 2.0203331386638013e-01 -5.2693211703573034e-10 1.9329290865232873e-01 -5.2926209201348696e-10 1.8944787842974101e-01 -1.9395635830765540e-09 