! Touchstone file exported from Ansys Full-Wave Spice
! Project: 0000_PSI_S-parameter_Sweep
!  Design: unknown
! Creation time: Fri Apr 18 11:30:09 2025
! Notes: ! Touchstone(R) file created by SIwave 2025 R1
!      : ! Touchstone(R) file created on Fri Apr 18 11:30:09 2025

# HZ S RI R 0.1
! Modal data exported
! Port[1] = PORT_1_DIE1_VDDCR_ECCX13_Group_DIE1_GRP_1_0_VSS
! Port[2] = PORT_2_BGA1_VDDCR_ECCX13_Group_BGA1_GRP_1_1_VSS
! Port[3] = VDDCR_ECCX13_C18_2
! Port[4] = VDDCR_ECCX13_C19_2
! Port[5] = VDDCR_ECCX13_C21_2
! Port[6] = VDDCR_ECCX13_C22_2
! Port[7] = VDDCR_ECCX13_C100_2
! Port[8] = VDDCR_ECCX13_C101_2
! Port[9] = VDDCR_ECCX13_C104_2

0.0000000000000000e+00 -7.2989690553019482e-01 0.0000000000000000e+00 2.6581411396113164e-01 0.0000000000000000e+00 2.0627662169416744e-01 0.0000000000000000e+00 2.0711461802639847e-01 0.0000000000000000e+00 
                       2.0542046193198576e-01 0.0000000000000000e+00 2.0403673890350404e-01 0.0000000000000000e+00 2.0883585021553069e-01 0.0000000000000000e+00 2.1316899055304125e-01 0.0000000000000000e+00 
                       2.1922951024424631e-01 0.0000000000000000e+00 2.6581411396113164e-01 0.0000000000000000e+00 -7.2431455775645981e-01 0.0000000000000000e+00 2.0548538146179424e-01 0.0000000000000000e+00 
                       2.0636338883427907e-01 0.0000000000000000e+00 2.0467782818896710e-01 0.0000000000000000e+00 2.0325831651032661e-01 0.0000000000000000e+00 2.0803182727882474e-01 0.0000000000000000e+00 
                       2.1233369169025892e-01 0.0000000000000000e+00 2.1835000983068814e-01 0.0000000000000000e+00 2.0627662169416744e-01 0.0000000000000000e+00 2.0548538146179424e-01 0.0000000000000000e+00 
                       -7.5217467695692919e-01 0.0000000000000000e+00 2.2442847954410552e-01 0.0000000000000000e+00 2.2458669149090391e-01 0.0000000000000000e+00 2.2920746181907664e-01 0.0000000000000000e+00 
                       2.2540971700566265e-01 0.0000000000000000e+00 2.1999779505650346e-01 0.0000000000000000e+00 2.1678252888452409e-01 0.0000000000000000e+00 2.0711461802639847e-01 0.0000000000000000e+00 
                       2.0636338883427907e-01 0.0000000000000000e+00 2.2442847954410552e-01 0.0000000000000000e+00 -7.5460124127844908e-01 0.0000000000000000e+00 2.3331164763676002e-01 0.0000000000000000e+00 
                       2.2421682458675296e-01 0.0000000000000000e+00 2.2216254723339557e-01 0.0000000000000000e+00 2.1967078858594408e-01 0.0000000000000000e+00 2.1733294683062254e-01 0.0000000000000000e+00 
                       2.0542046193198576e-01 0.0000000000000000e+00 2.0467782818896710e-01 0.0000000000000000e+00 2.2458669149090391e-01 0.0000000000000000e+00 2.3331164763676002e-01 0.0000000000000000e+00 
                       -7.4847911836946113e-01 0.0000000000000000e+00 2.2601771768519946e-01 0.0000000000000000e+00 2.2092542089238765e-01 0.0000000000000000e+00 2.1799292018231164e-01 0.0000000000000000e+00 
                       2.1554643036075416e-01 0.0000000000000000e+00 2.0403673890350404e-01 0.0000000000000000e+00 2.0325831651032661e-01 0.0000000000000000e+00 2.2920746181907664e-01 0.0000000000000000e+00 
                       2.2421682458675296e-01 0.0000000000000000e+00 2.2601771768519946e-01 0.0000000000000000e+00 -7.3957626387691788e-01 0.0000000000000000e+00 2.2142789583801448e-01 0.0000000000000000e+00 
                       2.1714921546838323e-01 0.0000000000000000e+00 2.1426209306546884e-01 0.0000000000000000e+00 2.0883585021553069e-01 0.0000000000000000e+00 2.0803182727882474e-01 0.0000000000000000e+00 
                       2.2540971700566265e-01 0.0000000000000000e+00 2.2216254723339557e-01 0.0000000000000000e+00 2.2092542089238765e-01 0.0000000000000000e+00 2.2142789583801448e-01 0.0000000000000000e+00 
                       -7.5086393512803551e-01 0.0000000000000000e+00 2.2415343969725604e-01 0.0000000000000000e+00 2.1991723696677201e-01 0.0000000000000000e+00 2.1316899055304125e-01 0.0000000000000000e+00 
                       2.1233369169025892e-01 0.0000000000000000e+00 2.1999779505650346e-01 0.0000000000000000e+00 2.1967078858594408e-01 0.0000000000000000e+00 2.1799292018231164e-01 0.0000000000000000e+00 
                       2.1714921546838323e-01 0.0000000000000000e+00 2.2415343969725604e-01 0.0000000000000000e+00 -7.5042802041356582e-01 0.0000000000000000e+00 2.2596117917967515e-01 0.0000000000000000e+00 
                       2.1922951024424631e-01 0.0000000000000000e+00 2.1835000983068814e-01 0.0000000000000000e+00 2.1678252888452409e-01 0.0000000000000000e+00 2.1733294683062254e-01 0.0000000000000000e+00 
                       2.1554643036075416e-01 0.0000000000000000e+00 2.1426209306546884e-01 0.0000000000000000e+00 2.1991723696677201e-01 0.0000000000000000e+00 2.2596117917967515e-01 0.0000000000000000e+00 
                       -7.4738193536294273e-01 0.0000000000000000e+00 

1.0000000000000000e+00 -7.2989526202446553e-01 2.3318370446545442e-09 2.6580345628311192e-01 5.8628059433221505e-10 2.0628352676284717e-01 1.7581861730300323e-10 2.0710335062354657e-01 -4.9959885452070734e-10 
                       2.0541089808679974e-01 -4.2974481404969257e-10 2.0403341330818034e-01 -2.1601808348672590e-10 2.0883507851627961e-01 2.0916833038822297e-10 2.1317757427847084e-01 -5.9352998962262725e-10 
                       2.1924094660088347e-01 -1.3935198529530802e-09 2.6580345628311192e-01 5.8628059433221505e-10 -7.2433779335092763e-01 4.6380869046813785e-09 2.0548276714364921e-01 -1.4624166417209186e-10 
                       2.0634263047968573e-01 -8.3618814112847802e-10 2.0465884486379457e-01 -7.4235651231884686e-10 2.0324561377345995e-01 -5.1252540469479743e-10 2.0802144900259922e-01 -3.3794903455031318e-11 
                       2.1233243413504829e-01 -9.5129931978504686e-10 2.1835131640028108e-01 -1.8366300865680503e-09 2.0628352676284717e-01 1.7581861730300323e-10 2.0548276714364921e-01 -1.4624166417209186e-10 
                       -7.5216080665969387e-01 2.7798930290988360e-09 2.2442164636571627e-01 -6.7325672621011064e-10 2.2458170763945229e-01 -9.2101578698190358e-10 2.2920937567192423e-01 -3.8890983733407688e-10 
                       2.2541425070016061e-01 -5.4769297332578222e-10 2.2001188773199137e-01 -4.0781260611104499e-10 2.1679925338191580e-01 1.1657982737279155e-10 2.0710335062354657e-01 -4.9959885452070734e-10 
                       2.0634263047968573e-01 -8.3618814112847802e-10 2.2442164636571627e-01 -6.7325672621011064e-10 -7.5462875026199960e-01 3.7746566554622760e-09 2.3328638373254501e-01 3.5910549037967506e-10 
                       2.2419887614971878e-01 -7.1408629313998068e-10 2.2214747636441026e-01 -6.7147507848165813e-10 2.1966557191431746e-01 -4.7025480760715697e-10 2.1733062429777611e-01 -2.1842826112824183e-10 
                       2.0541089808679974e-01 -4.2974481404969257e-10 2.0465884486379457e-01 -7.4235651231884686e-10 2.2458170763945229e-01 -9.2101578698190358e-10 2.3328638373254501e-01 3.5910549037967506e-10 
                       -7.4850268102154216e-01 3.7572955864633631e-09 2.2600157302394325e-01 -1.0436809090484470e-09 2.2091219618284161e-01 -7.4861375381797032e-10 2.1798945919902715e-01 -3.1236371746918919e-10 
                       2.1554581899453068e-01 1.1775904990950553e-10 2.0403341330818034e-01 -2.1601808348672590e-10 2.0324561377345995e-01 -5.1252540469479743e-10 2.2920937567192423e-01 -3.8890983733407688e-10 
                       2.2419887614971878e-01 -7.1408629313998068e-10 2.2600157302394325e-01 -1.0436809090484470e-09 -7.3958606863363130e-01 4.0311523099292407e-09 2.2142135838134730e-01 -8.1057627863675618e-10 
                       2.1715233190210920e-01 -4.4776769991735730e-10 2.1426796287330341e-01 1.3915774613251071e-10 2.0883507851627961e-01 2.0916833038822297e-10 2.0802144900259922e-01 -3.3794903455031318e-11 
                       2.2541425070016061e-01 -5.4769297332578222e-10 2.2214747636441026e-01 -6.7147507848165813e-10 2.2091219618284161e-01 -7.4861375381797032e-10 2.2142135838134730e-01 -8.1057627863675618e-10 
                       -7.5086818361823593e-01 3.0173649334828699e-09 2.2415942012305046e-01 -2.3870126363847660e-10 2.1992601509929655e-01 -1.7524965205333616e-10 2.1317757427847084e-01 -5.9352998962262725e-10 
                       2.1233243413504829e-01 -9.5129931978504686e-10 2.2001188773199137e-01 -4.0781260611104499e-10 2.1966557191431746e-01 -4.7025480760715697e-10 2.1798945919902715e-01 -3.1236371746918919e-10 
                       2.1715233190210920e-01 -4.4776769991735730e-10 2.2415942012305046e-01 -2.3870126363847660e-10 -7.5041150663203737e-01 3.4259890098968953e-09 2.2598006959127773e-01 -6.0260230080428371e-11 
                       2.1924094660088347e-01 -1.3935198529530802e-09 2.1835131640028108e-01 -1.8366300865680503e-09 2.1679925338191580e-01 1.1657982737279155e-10 2.1733062429777611e-01 -2.1842826112824183e-10 
                       2.1554581899453068e-01 1.1775904990950553e-10 2.1426796287330341e-01 1.3915774613251071e-10 2.1992601509929655e-01 -1.7524965205333616e-10 2.2598006959127773e-01 -6.0260230080428371e-11 
                       -7.4735927605938102e-01 3.2470952326490775e-09 

1.1659100000000000e+00 -7.2989526202447030e-01 2.7187121287348502e-09 2.6580345628310686e-01 6.8355040773827412e-10 2.0628352676284381e-01 2.0498868409993854e-10 2.0710335062354307e-01 -5.8248730047336040e-10 
                       2.0541089808679638e-01 -5.0104377614724794e-10 2.0403341330817706e-01 -2.5185764371896663e-10 2.0883507851627642e-01 2.4387144808358708e-10 2.1317757427846712e-01 -6.9200255019994493e-10 
                       2.1924094660087942e-01 -1.6247187317549469e-09 2.6580345628310686e-01 6.8355040773827412e-10 -7.2433779335093296e-01 5.4075919030398086e-09 2.0548276714364580e-01 -1.7050461867380044e-10 
                       2.0634263047968227e-01 -9.7492011562196494e-10 2.0465884486379118e-01 -8.6552088127748855e-10 2.0324561377345665e-01 -5.9755849458636561e-10 2.0802144900259606e-01 -3.9401815886550682e-11 
                       2.1233243413504466e-01 -1.1091293899299786e-09 2.1835131640027697e-01 -2.1413453842291184e-09 2.0628352676284381e-01 2.0498868409993854e-10 2.0548276714364580e-01 -1.7050461867380044e-10 
                       -7.5216080665969798e-01 3.2411050815574353e-09 2.2442164636571238e-01 -7.8495674965384884e-10 2.2458170763944840e-01 -1.0738215161983181e-09 2.2920937567192051e-01 -4.5343386844443705e-10 
                       2.2541425070015672e-01 -6.3856071452830346e-10 2.2001188773198774e-01 -4.7547279558951710e-10 2.1679925338191236e-01 1.3592158653475299e-10 2.0710335062354307e-01 -5.8248730047336040e-10 
                       2.0634263047968227e-01 -9.7492011562196494e-10 2.2442164636571238e-01 -7.8495674965384884e-10 -7.5462875026200349e-01 4.4009099411718109e-09 2.3328638373254112e-01 4.1868468229106221e-10 
                       2.2419887614971507e-01 -8.3256035003332667e-10 2.2214747636440643e-01 -7.8287950875056910e-10 2.1966557191431385e-01 -5.4827478273565214e-10 2.1733062429777272e-01 -2.5466769393168846e-10 
                       2.0541089808679638e-01 -5.0104377614724794e-10 2.0465884486379118e-01 -8.6552088127748855e-10 2.2458170763944840e-01 -1.0738215161983181e-09 2.3328638373254112e-01 4.1868468229106221e-10 
                       -7.4850268102154649e-01 4.3806684972142988e-09 2.2600157302393920e-01 -1.2168380086669221e-09 2.2091219618283781e-01 -8.7281626171231616e-10 2.1798945919902346e-01 -3.6418798183177643e-10 
                       2.1554581899452735e-01 1.3729645387995109e-10 2.0403341330817706e-01 -2.5185764371896663e-10 2.0324561377345665e-01 -5.9755849458636561e-10 2.2920937567192051e-01 -4.5343386844443705e-10 
                       2.2419887614971507e-01 -8.3256035003332667e-10 2.2600157302393920e-01 -1.2168380086669221e-09 -7.3958606863363552e-01 4.6999607896728294e-09 2.2142135838134347e-01 -9.4505898902424771e-10 
                       2.1715233190210551e-01 -5.2205683900775357e-10 2.1426796287329991e-01 1.6224540779536882e-10 2.0883507851627642e-01 2.4387144808358708e-10 2.0802144900259606e-01 -3.9401815886550682e-11 
                       2.2541425070015672e-01 -6.3856071452830346e-10 2.2214747636440643e-01 -7.8287950875056910e-10 2.2091219618283781e-01 -8.7281626171231616e-10 2.2142135838134347e-01 -9.4505898902424771e-10 
                       -7.5086818361824048e-01 3.5179759495987105e-09 2.2415942012304665e-01 -2.7830419028652173e-10 2.1992601509929299e-01 -2.0432532182427373e-10 2.1317757427846712e-01 -6.9200255019994493e-10 
                       2.1233243413504466e-01 -1.1091293899299786e-09 2.2001188773198774e-01 -4.7547279558951710e-10 2.1966557191431385e-01 -5.4827478273565214e-10 2.1798945919902346e-01 -3.6418798183177643e-10 
                       2.1715233190210551e-01 -5.2205683900775357e-10 2.2415942012304665e-01 -2.7830419028652173e-10 -7.5041150663204148e-01 3.9943948465281768e-09 2.2598006959127409e-01 -7.0258004851293841e-11 
                       2.1924094660087942e-01 -1.6247187317549469e-09 2.1835131640027697e-01 -2.1413453842291184e-09 2.1679925338191236e-01 1.3592158653475299e-10 2.1733062429777272e-01 -2.5466769393168846e-10 
                       2.1554581899452735e-01 1.3729645387995109e-10 2.1426796287329991e-01 1.6224540779536882e-10 2.1992601509929299e-01 -2.0432532182427373e-10 2.2598006959127409e-01 -7.0258004851293841e-11 
                       -7.4735927605938546e-01 3.7858208027000398e-09 

1.3593599999999999e+00 -7.2989526202446631e-01 3.1698060050283877e-09 2.6580345628311081e-01 7.9696638871756382e-10 2.0628352676285019e-01 2.3900079561838040e-10 2.0710335062354912e-01 -6.7913469887873492e-10 
                       2.0541089808680277e-01 -5.8417791042403505e-10 2.0403341330818317e-01 -2.9364634196638197e-10 2.0883507851628286e-01 2.8433506159734552e-10 2.1317757427847328e-01 -8.0682092668909681e-10 
                       2.1924094660088470e-01 -1.8942951473065900e-09 2.6580345628311081e-01 7.9696638871756382e-10 -7.2433779335092918e-01 6.3048298147511404e-09 2.0548276714365230e-01 -1.9879506860674447e-10 
                       2.0634263047968837e-01 -1.1366807115221491e-09 2.0465884486379760e-01 -1.0091297485832250e-09 2.0324561377346284e-01 -6.9670653412184080e-10 2.0802144900260261e-01 -4.5939439958026308e-11 
                       2.1233243413505076e-01 -1.2931582433420369e-09 2.1835131640028232e-01 -2.4966414744724989e-09 2.0628352676285019e-01 2.3900079561838040e-10 2.0548276714365230e-01 -1.9879506860674447e-10 
                       -7.5216080665969265e-01 3.7788753880407198e-09 2.2442164636571790e-01 -9.1519826333766923e-10 2.2458170763945401e-01 -1.2519920201882074e-09 2.2920937567192587e-01 -5.2866847647466112e-10 
                       2.2541425070016230e-01 -7.4451192021703794e-10 2.2001188773199370e-01 -5.5436414424020886e-10 2.1679925338191847e-01 1.5847395414144702e-10 2.0710335062354912e-01 -6.7913469887873492e-10 
                       2.0634263047968837e-01 -1.1366807115221491e-09 2.2442164636571790e-01 -9.1519826333766923e-10 -7.5462875026199805e-01 5.1311172711721939e-09 2.3328638373254679e-01 4.8815363940685556e-10 
                       2.2419887614972056e-01 -9.7070034343957646e-10 2.2214747636441212e-01 -9.1277636268117955e-10 2.1966557191431990e-01 -6.3924557526562101e-10 2.1733062429777877e-01 -2.9692264104453847e-10 
                       2.0541089808680277e-01 -5.8417791042403505e-10 2.0465884486379760e-01 -1.0091297485832250e-09 2.2458170763945401e-01 -1.2519920201882074e-09 2.3328638373254679e-01 4.8815363940685556e-10 
                       -7.4850268102154127e-01 5.1075173284180498e-09 2.2600157302394461e-01 -1.4187380805205114e-09 2.2091219618284347e-01 -1.0176355923862178e-09 2.1798945919902979e-01 -4.2461474297676026e-10 
                       2.1554581899453368e-01 1.6007694208717371e-10 2.0403341330818317e-01 -2.9364634196638197e-10 2.0324561377346284e-01 -6.9670653412184080e-10 2.2920937567192587e-01 -5.2866847647466112e-10 
                       2.2419887614972056e-01 -9.7070034343957646e-10 2.2600157302394461e-01 -1.4187380805205114e-09 -7.3958606863363041e-01 5.4797872040300364e-09 2.2142135838134908e-01 -1.1018649701244123e-09 
                       2.1715233190211189e-01 -6.0867750055581620e-10 2.1426796287330624e-01 1.8916547378498530e-10 2.0883507851628286e-01 2.8433506159734552e-10 2.0802144900260261e-01 -4.5939439958026308e-11 
                       2.2541425070016230e-01 -7.4451192021703794e-10 2.2214747636441212e-01 -9.1277636268117955e-10 2.2091219618284347e-01 -1.0176355923862178e-09 2.2142135838134908e-01 -1.1018649701244123e-09 
                       -7.5086818361823537e-01 4.1016851959878182e-09 2.2415942012305276e-01 -3.2448094973673777e-10 2.1992601509929910e-01 -2.3822736701271950e-10 2.1317757427847328e-01 -8.0682092668909681e-10 
                       2.1233243413505076e-01 -1.2931582433420369e-09 2.2001188773199370e-01 -5.5436414424020886e-10 2.1966557191431990e-01 -6.3924557526562101e-10 2.1798945919902979e-01 -4.2461474297676026e-10 
                       2.1715233190211189e-01 -6.0867750055581620e-10 2.2415942012305276e-01 -3.2448094973673777e-10 -7.5041150663203626e-01 4.6571524204963400e-09 2.2598006959127964e-01 -8.1915346359025391e-11 
                       2.1924094660088470e-01 -1.8942951473065900e-09 2.1835131640028232e-01 -2.4966414744724989e-09 2.1679925338191847e-01 1.5847395414144702e-10 2.1733062429777877e-01 -2.9692264104453847e-10 
                       2.1554581899453368e-01 1.6007694208717371e-10 2.1426796287330624e-01 1.8916547378498530e-10 2.1992601509929910e-01 -2.3822736701271950e-10 2.2598006959127964e-01 -8.1915346359025391e-11 
                       -7.4735927605938035e-01 4.4139713754590499e-09 

1.4678000000000000e+00 -7.2989526202446586e-01 3.4226704141526544e-09 2.6580345628311131e-01 8.6054265636857689e-10 2.0628352676285175e-01 2.5806656648061444e-10 2.0710335062355051e-01 -7.3331119866285405e-10 
                       2.0541089808680424e-01 -6.3077943805931616e-10 2.0403341330818464e-01 -3.1707134294040973e-10 2.0883507851628474e-01 3.0701727534323529e-10 2.1317757427847439e-01 -8.7118331876255123e-10 
                       2.1924094660088564e-01 -2.0454084401598956e-09 2.6580345628311131e-01 8.6054265636857689e-10 -7.2433779335092874e-01 6.8077839586990543e-09 2.0548276714365393e-01 -2.1465351466967940e-10 
                       2.0634263047968984e-01 -1.2273569535457424e-09 2.0465884486379923e-01 -1.0896308887793074e-09 2.0324561377346451e-01 -7.5228478900663120e-10 2.0802144900260466e-01 -4.9604159290134936e-11 
                       2.1233243413505198e-01 -1.3963171415777958e-09 2.1835131640028338e-01 -2.6958056410589782e-09 2.0628352676285175e-01 2.5806656648061444e-10 2.0548276714365393e-01 -2.1465351466967940e-10 
                       -7.5216080665969187e-01 4.0803269881175116e-09 2.2442164636571887e-01 -9.8820622272685420e-10 2.2458170763945492e-01 -1.3518669721274487e-09 2.2920937567192665e-01 -5.7084185923466404e-10 
                       2.2541425070016333e-01 -8.0390374624327533e-10 2.2001188773199462e-01 -5.9858734324501573e-10 2.1679925338191974e-01 1.7111587062029254e-10 2.0710335062355051e-01 -7.3331119866285405e-10 
                       2.0634263047968984e-01 -1.2273569535457424e-09 2.2442164636571887e-01 -9.8820622272685420e-10 -7.5462875026199727e-01 5.5404410388903848e-09 2.3328638373254740e-01 5.2709503878508861e-10 
                       2.2419887614972123e-01 -1.0481358610665706e-09 2.2214747636441307e-01 -9.8559112019080051e-10 2.1966557191432073e-01 -6.9024000660120847e-10 2.1733062429777983e-01 -3.2060900168172383e-10 
                       2.0541089808680424e-01 -6.3077943805931616e-10 2.0465884486379923e-01 -1.0896308887793074e-09 2.2458170763945492e-01 -1.3518669721274487e-09 2.3328638373254740e-01 5.2709503878508861e-10 
                       -7.4850268102154072e-01 5.5149584618158268e-09 2.2600157302394536e-01 -1.5319148382966039e-09 2.2091219618284452e-01 -1.0988152678494027e-09 2.1798945919903079e-01 -4.5848746449923428e-10 
                       2.1554581899453498e-01 1.7284673346025407e-10 2.0403341330818464e-01 -3.1707134294040973e-10 2.0324561377346451e-01 -7.5228478900663120e-10 2.2920937567192665e-01 -5.7084185923466404e-10 
                       2.2419887614972123e-01 -1.0481358610665706e-09 2.2600157302394536e-01 -1.5319148382966039e-09 -7.3958606863363008e-01 5.9169253605204548e-09 2.2142135838134994e-01 -1.1897638617783362e-09 
                       2.1715233190211256e-01 -6.5723342993663299e-10 2.1426796287330738e-01 2.0425573977833082e-10 2.0883507851628474e-01 3.0701727534323529e-10 2.0802144900260466e-01 -4.9604159290134936e-11 
                       2.2541425070016333e-01 -8.0390374624327533e-10 2.2214747636441307e-01 -9.8559112019080051e-10 2.2091219618284452e-01 -1.0988152678494027e-09 2.2142135838134994e-01 -1.1897638617783362e-09 
                       -7.5086818361823471e-01 4.4288882493748254e-09 2.2415942012305337e-01 -3.5036571476350114e-10 2.1992601509930013e-01 -2.5723143928061566e-10 2.1317757427847439e-01 -8.7118331876255123e-10 
                       2.1233243413505198e-01 -1.3963171415777958e-09 2.2001188773199462e-01 -5.9858734324501573e-10 2.1966557191432073e-01 -6.9024000660120847e-10 2.1798945919903079e-01 -4.5848746449923428e-10 
                       2.1715233190211256e-01 -6.5723342993663299e-10 2.2415942012305337e-01 -3.5036571476350114e-10 -7.5041150663203571e-01 5.0286666687286648e-09 2.2598006959128064e-01 -8.8449965707804997e-11 
                       2.1924094660088564e-01 -2.0454084401598956e-09 2.1835131640028338e-01 -2.6958056410589782e-09 2.1679925338191974e-01 1.7111587062029254e-10 2.1733062429777983e-01 -3.2060900168172383e-10 
                       2.1554581899453498e-01 1.7284673346025407e-10 2.1426796287330738e-01 2.0425573977833082e-10 2.1992601509930013e-01 -2.5723143928061566e-10 2.2598006959128064e-01 -8.8449965707804997e-11 
                       -7.4735927605938002e-01 4.7660863824897930e-09 

1.5848899999999999e+00 -7.2989526202447252e-01 3.6957052137108272e-09 2.6580345628310442e-01 9.2919025116357496e-10 2.0628352676284709e-01 2.7865316838284900e-10 2.0710335062354571e-01 -7.9180922853757907e-10 
                       2.0541089808679946e-01 -6.8109825833373167e-10 2.0403341330818012e-01 -3.4236490033489602e-10 2.0883507851628025e-01 3.3150879515074781e-10 2.1317757427846942e-01 -9.4067974524489561e-10 
                       2.1924094660088020e-01 -2.2085756797388368e-09 2.6580345628310442e-01 9.2919025116357496e-10 -7.2433779335093607e-01 7.3508575543689687e-09 2.0548276714364927e-01 -2.3177695112598726e-10 
                       2.0634263047968496e-01 -1.3252662229893385e-09 2.0465884486379435e-01 -1.1765534128040953e-09 2.0324561377345984e-01 -8.1229638864188651e-10 2.0802144900260014e-01 -5.3561204534684292e-11 
                       2.1233243413504693e-01 -1.5077047789292228e-09 2.1835131640027772e-01 -2.9108566578934481e-09 2.0628352676284709e-01 2.7865316838284900e-10 2.0548276714364927e-01 -2.3177695112598726e-10 
                       -7.5216080665969720e-01 4.4058246628951984e-09 2.2442164636571382e-01 -1.0670378527959972e-09 2.2458170763944982e-01 -1.4597087106223388e-09 2.2920937567192173e-01 -6.1637931208540951e-10 
                       2.2541425070015836e-01 -8.6803311648672260e-10 2.2001188773199001e-01 -6.4633812129252220e-10 2.1679925338191511e-01 1.8476620260958237e-10 2.0710335062354571e-01 -7.9180922853757907e-10 
                       2.0634263047968496e-01 -1.3252662229893385e-09 2.2442164636571382e-01 -1.0670378527959972e-09 -7.5462875026200238e-01 5.9824155866823371e-09 2.3328638373254243e-01 5.6914270065503439e-10 
                       2.2419887614971651e-01 -1.1317482251281131e-09 2.2214747636440826e-01 -1.0642141371271515e-09 2.1966557191431615e-01 -7.4530214202120003e-10 2.1733062429777522e-01 -3.4618476677527039e-10 
                       2.0541089808679946e-01 -6.8109825833373167e-10 2.0465884486379435e-01 -1.1765534128040953e-09 2.2458170763944982e-01 -1.4597087106223388e-09 2.3328638373254243e-01 5.6914270065503439e-10 
                       -7.4850268102154627e-01 5.9549002020382084e-09 2.2600157302394025e-01 -1.6541194359344723e-09 2.2091219618283955e-01 -1.1864704522808125e-09 2.1798945919902613e-01 -4.9506213217547583e-10 
                       2.1554581899453040e-01 1.8663514061650014e-10 2.0403341330818012e-01 -3.4236490033489602e-10 2.0324561377345984e-01 -8.1229638864188651e-10 2.2920937567192173e-01 -6.1637931208540951e-10 
                       2.2419887614971651e-01 -1.1317482251281131e-09 2.2600157302394025e-01 -1.6541194359344723e-09 -7.3958606863363530e-01 6.3889329845012528e-09 2.2142135838134513e-01 -1.2846742382420759e-09 
                       2.1715233190210803e-01 -7.0966254991669319e-10 2.1426796287330294e-01 2.2054972027517489e-10 2.0883507851628025e-01 3.3150879515074781e-10 2.0802144900260014e-01 -5.3561204534684292e-11 
                       2.2541425070015836e-01 -8.6803311648672260e-10 2.2214747636440826e-01 -1.0642141371271515e-09 2.2091219618283955e-01 -1.1864704522808125e-09 2.2142135838134513e-01 -1.2846742382420759e-09 
                       -7.5086818361824004e-01 4.7821915094422229e-09 2.2415942012304865e-01 -3.7831524572101509e-10 2.1992601509929532e-01 -2.7775142103698331e-10 2.1317757427846942e-01 -9.4067974524489561e-10 
                       2.1233243413504693e-01 -1.5077047789292228e-09 2.2001188773199001e-01 -6.4633812129252220e-10 2.1966557191431615e-01 -7.4530214202120003e-10 2.1798945919902613e-01 -4.9506213217547583e-10 
                       2.1715233190210803e-01 -7.0966254991669319e-10 2.2415942012304865e-01 -3.7831524572101509e-10 -7.5041150663204081e-01 5.4298157219022012e-09 2.2598006959127548e-01 -9.5505836045577356e-11 
                       2.1924094660088020e-01 -2.2085756797388368e-09 2.1835131640027772e-01 -2.9108566578934481e-09 2.1679925338191511e-01 1.8476620260958237e-10 2.1733062429777522e-01 -3.4618476677527039e-10 
                       2.1554581899453040e-01 1.8663514061650014e-10 2.1426796287330294e-01 2.2054972027517489e-10 2.1992601509929532e-01 -2.7775142103698331e-10 2.2598006959127548e-01 -9.5505836045577356e-11 
                       -7.4735927605938535e-01 5.1462887632852093e-09 

1.7113300000000000e+00 -7.2989526202447497e-01 3.9905426896375013e-09 2.6580345628310176e-01 1.0033195695090035e-09 2.0628352676284695e-01 3.0088367435086033e-10 2.0710335062354540e-01 -8.5497850770514503e-10 
                       2.0541089808679924e-01 -7.3543519262572477e-10 2.0403341330818003e-01 -3.6967822681425003e-10 2.0883507851627997e-01 3.5795603883829019e-10 2.1317757427846884e-01 -1.0157256771379852e-09 
                       2.1924094660087903e-01 -2.3847723299484171e-09 2.6580345628310176e-01 1.0033195695090035e-09 -7.2433779335093873e-01 7.9372972626000451e-09 2.0548276714364927e-01 -2.5026774714803749e-10 
                       2.0634263047968476e-01 -1.4309938515569221e-09 2.0465884486379429e-01 -1.2704169702255723e-09 2.0324561377345993e-01 -8.7710010081350632e-10 2.0802144900260008e-01 -5.7834232133363340e-11 
                       2.1233243413504652e-01 -1.6279870649256980e-09 2.1835131640027672e-01 -3.1430801660410788e-09 2.0628352676284695e-01 3.0088367435086033e-10 2.0548276714364927e-01 -2.5026774714803749e-10 
                       -7.5216080665969764e-01 4.7573143374934462e-09 2.2442164636571360e-01 -1.1521644332605044e-09 2.2458170763944946e-01 -1.5761619467310987e-09 2.2920937567192159e-01 -6.6555307192007177e-10 
                       2.2541425070015778e-01 -9.3728341603645266e-10 2.2001188773198999e-01 -6.9790194721299695e-10 2.1679925338191525e-01 1.9950655597973745e-10 2.0710335062354540e-01 -8.5497850770514503e-10 
                       2.0634263047968476e-01 -1.4309938515569221e-09 2.2442164636571360e-01 -1.1521644332605044e-09 -7.5462875026200271e-01 6.4596831741958141e-09 2.3328638373254199e-01 6.1454799885605129e-10 
                       2.2419887614971629e-01 -1.2220372960340267e-09 2.2214747636440768e-01 -1.1491154460528675e-09 2.1966557191431602e-01 -8.0476115989927775e-10 2.1733062429777522e-01 -3.7380283611585755e-10 
                       2.0541089808679924e-01 -7.3543519262572477e-10 2.0465884486379429e-01 -1.2704169702255723e-09 2.2458170763944946e-01 -1.5761619467310987e-09 2.3328638373254199e-01 6.1454799885605129e-10 
                       -7.4850268102154693e-01 6.4299726559935413e-09 2.2600157302394003e-01 -1.7860824500765540e-09 2.2091219618283925e-01 -1.2811251753168257e-09 2.1798945919902615e-01 -5.3455740061361484e-10 
                       2.1554581899453068e-01 2.0152459488273623e-10 2.0403341330818003e-01 -3.6967822681425003e-10 2.0324561377345993e-01 -8.7710010081350632e-10 2.2920937567192159e-01 -6.6555307192007177e-10 
                       2.2419887614971629e-01 -1.2220372960340267e-09 2.2600157302394003e-01 -1.7860824500765540e-09 -7.3958606863363596e-01 6.8986318825454927e-09 2.2142135838134458e-01 -1.3871635029135918e-09 
                       2.1715233190210809e-01 -7.6627829789399014e-10 2.1426796287330299e-01 2.3814482569316624e-10 2.0883507851627997e-01 3.5795603883829019e-10 2.0802144900260008e-01 -5.7834232133363340e-11 
                       2.2541425070015778e-01 -9.3728341603645266e-10 2.2214747636440768e-01 -1.1491154460528675e-09 2.2091219618283925e-01 -1.2811251753168257e-09 2.2142135838134458e-01 -1.3871635029135918e-09 
                       -7.5086818361824148e-01 5.1637071316286272e-09 2.2415942012304807e-01 -4.0849663349771923e-10 2.1992601509929488e-01 -2.9990998704550173e-10 2.1317757427846884e-01 -1.0157256771379852e-09 
                       2.1233243413504652e-01 -1.6279870649256980e-09 2.2001188773198999e-01 -6.9790194721299695e-10 2.1966557191431602e-01 -8.0476115989927775e-10 2.1798945919902615e-01 -5.3455740061361484e-10 