! Touchstone data
! Created: 18-Apr-2025 by IdEM 2023 (2023.0.0)
!
!*********************************************************
! COMMENTS
!*********************************************************
!
!  Touchstone file exported from Ansys Full-Wave Spice
!  Project: 0001_PSI_S-parameter_Sweep
!   Design: unknown
!  Creation time: Thu Apr 17 16:39:10 2025
!  Notes: ! Touchstone(R) file created by SIwave 2025 R1
!       : ! Touchstone(R) file created on Thu Apr 17 16:39:10 2025
! 
!  Modal data exported
!  Port[1] = PORT_1_DIE1_VDDCR_GFX_Group_DIE1_VSS_Group
!  Port[2] = PORT_2_BGA1_VDDCR_GFX_Group_BGA1_VSS_Group
!  Port[3] = VDDCR_GFX_C8_2
!  Port[4] = VDDCR_GFX_C12_2
!  Port[5] = VDDCR_GFX_C42_2
!  Port[6] = VDDCR_GFX_C43_2
!  Port[7] = VDDCR_GFX_C44_1
!  Port[8] = VDDCR_GFX_C45_2
!  Port[9] = VDDCR_GFX_C46_1
!  Port[10] = VDDCR_GFX_C47_2
!  Port[11] = VDDCR_GFX_C92_1
!  Port[12] = VDDCR_GFX_C128_2
!
!*********************************************************
!
!
!---------------------------
! Options Used in IdEM Flow
!---------------------------
!
! Fitting Options !
!
! Bandwidth: 1.0000e+09 Hz
! Order: [2 2 4] 
! SplitType: none 
! tol: 1.0000e-03 
! DC Point: enforced 
!
!---------------------------
!
! Passivity Options !
!
! Alg: SOC+HAM 
!    Max SOC it: 200 
!    Max HAM it: 50 
! Freq sampling: adaptive
! DC Point: enforced
! Optimization method: Data based
!
!---------------------------
!

# Hz S MA R 0.1

!
                   0    0.821785063236054                  180   0.1754957866401073                    0   0.1631840493670393                    0   0.1678041427252636                    0
  0.1605031527158854                    0     0.16706033755624                    0   0.1654109526911062                    0    0.166141112555531                    0
  0.1667191737910407                    0   0.1672008982809548                    0   0.1572604837013074                    0    0.165004972101357                    0
  0.1754957866401074                    0    0.800049694943212                  180   0.1610434272294519                    0   0.1655411594422593                    0
  0.1584022931560997                    0   0.1648221353622104                    0   0.1632547234702051                    0   0.1639890656815845                    0
  0.1645100669989623                    0   0.1649872350476662                    0   0.1551093992155169                    0   0.1628944015889254                    0
  0.1631840493670391                    0   0.1610434272294516                    0   0.7535029318138637                  180   0.1738434107304287                    0
  0.1601197008154211                    0   0.1647926053178329                    0   0.1572659769639149                    0    0.156901922487624                    0
  0.1581774241340864                    0   0.1575911303612561                    0   0.1455588677812815                    0   0.1550244155153055                    0
  0.1678041427252637                    0   0.1655411594422591                    0   0.1738434107304287                    0   0.7928348004447392                  180
  0.1623165144723138                    0   0.1691456817885522                    0   0.1610947148944239                    0   0.1607307623099562                    0
  0.1624448620855651                    0   0.1615693084578151                    0   0.1494718293372364                    0   0.1588724130907015                    0
  0.1605031527158853                    0   0.1584022931560999                    0   0.1601197008154215                    0   0.1623165144723138                    0
  0.7367180863790335                  180   0.1669221213673165                    0   0.1591560271552895                    0   0.1565398483398657                    0
   0.158645358420391                    0   0.1569472878256936                    0   0.1430615855109754                    0   0.1541041954895598                    0
  0.1670603375562397                    0   0.1648221353622112                    0   0.1647926053178327                    0   0.1691456817885512                    0
  0.1669221213673162                    0   0.7954491236508937                  180   0.1634978527191031                    0    0.161943842626791                    0
  0.1661446125227305                    0     0.16275710279206                    0   0.1487445522406393                    0   0.1596182782471954                    0
  0.1654109526911061                    0   0.1632547234702051                    0    0.157265976963915                    0   0.1610947148944249                    0
  0.1591560271552895                    0   0.1634978527191004                    0   0.7968780717812733                  180   0.1710502381740347                    0
  0.1725804230312043                    0   0.1689957690660039                    0   0.1487103186453037                    0   0.1658610738604635                    0
  0.1661411125555305                    0   0.1639890656815848                    0   0.1569019224876234                    0   0.1607307623099557                    0
  0.1565398483398648                    0   0.1619438426267922                    0   0.1710502381740349                    0   0.7973373118003036                  180
  0.1686107677197289                    0   0.1724375237522972                    0   0.1495591324184635                    0   0.1694330946242048                    0
  0.1667191737910407                    0   0.1645100669989615                    0   0.1581774241340858                    0   0.1624448620855652                    0
  0.1586453584203905                    0   0.1661446125227331                    0    0.172580423031199                    0   0.1686107677197315                    0
  0.8016031621102671                  180   0.1696257048935151                    0   0.1493933282556233                    0   0.1647514391471985                    0
  0.1672008982809545                    0   0.1649872350476664                    0   0.1575911303612566                    0   0.1615693084578144                    0
   0.156947287825693                    0   0.1627571027920596                    0   0.1689957690660069                    0   0.1724375237522963                    0
  0.1696257048935133                    0    0.799206672128663                  180   0.1499001075052254                    0   0.1671946030359538                    0
  0.1572604837013072                    0   0.1551093992155168                    0   0.1455588677812815                    0   0.1494718293372365                    0
  0.1430615855109751                    0   0.1487445522406396                    0   0.1487103186453038                    0   0.1495591324184637                    0
  0.1493933282556236                    0   0.1499001075052257                    0   0.6483448996791847                  180   0.1515752939573884                    0
  0.1650049721013568                    0    0.162894401588925                    0   0.1550244155153054                    0   0.1588724130907015                    0
  0.1541041954895591                    0   0.1596182782471953                    0   0.1658610738604635                    0   0.1694330946242049                    0
  0.1647514391471983                    0    0.167194603035954                    0    0.151575293957388                    0   0.7743341817684756                  180

!
                   1    0.821785063236054    179.9999998866903   0.1754957866401073 3.035246660278164e-07   0.1631840493670393 -1.804626860548779e-07   0.1678041427252636 -1.984831464139296e-08
  0.1605031527158854 -2.457374999557596e-07     0.16706033755624 -1.586469533320735e-08   0.1654109526911062 -5.21724497923192e-08    0.166141112555531 -3.437476575911049e-08
  0.1667191737910407 -5.246621981949827e-09   0.1672008982809548 8.170430706090223e-09   0.1572604837013074 -2.599016090407669e-07    0.165004972101357 -8.845422262379224e-08
  0.1754957866401074 3.035246660278162e-07    0.800049694943212    179.9999995352918   0.1610434272294519 -3.542154471228476e-07   0.1655411594422593 -1.974608453061834e-07
  0.1584022931560997 -4.2582473537177e-07   0.1648221353622104 -1.992249557219233e-07   0.1632547234702051 -2.101849274306734e-07   0.1639890656815845 -1.987129292791634e-07
  0.1645100669989623 -1.837818756372341e-07   0.1649872350476662 -1.660767535560792e-07   0.1551093992155169 -4.315510258745662e-07   0.1628944015889254 -2.451514889762759e-07
  0.1631840493670391 -1.804626860548766e-07   0.1610434272294516 -3.542154471228454e-07   0.7535029318138636      179.99999921367   0.1738434107304287 1.009090239387175e-07
  0.1601197008154211 -3.026452827618669e-07   0.1647926053178329 -1.471676720338638e-07   0.1572659769639149 -3.843927129154363e-07    0.156901922487624 -4.626937915926851e-07
  0.1581774241340864 -3.609963499497062e-07   0.1575911303612561 -4.311828621484053e-07   0.1455588677812815 -7.791901396954875e-07   0.1550244155153055 -5.484312414504504e-07
  0.1678041427252637 -1.984831464139272e-08   0.1655411594422591 -1.974608453061818e-07   0.1738434107304287 1.009090239387179e-07   0.7928348004447392    179.9999995143382
  0.1623165144723138 -2.547372150948238e-07   0.1691456817885522 -3.767561355075296e-08   0.1610947148944239 -2.511599870855254e-07   0.1607307623099562 -3.152567803822687e-07
  0.1624448620855651 -2.182536482847856e-07   0.1615693084578151 -2.809660035753326e-07   0.1494718293372364 -5.988422502855773e-07   0.1588724130907015 -3.955248935707749e-07
  0.1605031527158853 -2.457374999557585e-07   0.1584022931560999 -4.25824735371771e-07   0.1601197008154215 -3.026452827618688e-07   0.1623165144723138 -2.547372150948248e-07
  0.7367180863790336    179.9999991216226   0.1669221213673165 -5.515910508506464e-08   0.1591560271552895 -3.003126859956131e-07   0.1565398483398656 -4.563924138432874e-07
   0.158645358420391 -3.0674500496461e-07   0.1569472878256936 -4.41814078698048e-07   0.1430615855109754 -8.579384008796594e-07   0.1541041954895598 -5.645067447427242e-07
  0.1670603375562397 -1.586469533320474e-08   0.1648221353622111 -1.992249557219286e-07   0.1647926053178327 -1.471676720338631e-07   0.1691456817885512 -3.767561355074629e-08
  0.1669221213673162 -5.515910508506205e-08   0.7954491236508937    179.9999995882985   0.1634978527191031 -1.390138696487946e-07    0.161943842626791 -2.410740702956556e-07
  0.1661446125227305 -1.084385269742948e-07     0.16275710279206 -2.118580596680847e-07   0.1487445522406392 -6.182114820579331e-07   0.1596182782471954 -3.222616695740702e-07
  0.1654109526911061 -5.217244979231769e-08   0.1632547234702051 -2.101849274306735e-07    0.157265976963915 -3.84392712915437e-07   0.1610947148944249 -2.51159987085532e-07
  0.1591560271552895 -3.003126859956128e-07   0.1634978527191004 -1.390138696487765e-07   0.7968780717812733    179.9999995928017   0.1710502381740347 -5.686803233941379e-08
  0.1725804230312043 1.625431636204961e-07   0.1689957690660039 -7.465965319688139e-08   0.1487103186453037 -6.310990152334101e-07   0.1658610738604635 -1.657777277237266e-07
  0.1661411125555305 -3.437476575910717e-08   0.1639890656815848 -1.987129292791651e-07   0.1569019224876234 -4.626937915926827e-07   0.1607307623099557 -3.152567803822655e-07
  0.1565398483398648 -4.563924138432833e-07   0.1619438426267922 -2.41074070295663e-07   0.1710502381740349 -5.686803233941515e-08   0.7973373118003036    179.9999995749391
  0.1686107677197289 -9.404373151112244e-08   0.1724375237522972 8.272599601148996e-08   0.1495591324184635 -5.556231687672954e-07   0.1694330946242048 1.30854535659479e-07
  0.1667191737910407 -5.24662198194926e-09   0.1645100669989615 -1.83781875637229e-07   0.1581774241340858 -3.609963499497031e-07   0.1624448620855652 -2.182536482847858e-07
  0.1586453584203905 -3.067450049646068e-07   0.1661446125227331 -1.084385269743129e-07    0.172580423031199 1.625431636205385e-07   0.1686107677197315 -9.404373151113984e-08
  0.8016031621102671    179.9999996157985   0.1696257048935151 -7.053066775829573e-08   0.1493933282556233 -6.125054781737543e-07   0.1647514391471985 -1.933716191152248e-07
  0.1672008982809545 8.170430706092034e-09   0.1649872350476664 -1.6607675355608e-07   0.1575911303612566 -4.311828621484074e-07   0.1615693084578144 -2.809660035753284e-07
   0.156947287825693 -4.418140786980448e-07   0.1627571027920596 -2.118580596680823e-07   0.1689957690660069 -7.465965319690216e-08   0.1724375237522963 8.272599601149607e-08
  0.1696257048935133 -7.053066775828391e-08    0.799206672128663    179.9999995748867   0.1499001075052254 -5.77615292554988e-07   0.1671946030359538 -3.025760330838931e-08
  0.1572604837013072 -2.599016090407656e-07   0.1551093992155168 -4.315510258745659e-07   0.1455588677812815 -7.791901396954873e-07   0.1494718293372365 -5.988422502855783e-07
  0.1430615855109751 -8.57938400879659e-07   0.1487445522406395 -6.182114820579346e-07   0.1487103186453038 -6.310990152334107e-07   0.1495591324184637 -5.556231687672965e-07
  0.1493933282556236 -6.125054781737557e-07   0.1499001075052256 -5.776152925549889e-07    0.648344899679185    179.9999985271587   0.1515752939573884 -5.255895245956219e-07
  0.1650049721013568 -8.845422262379048e-08    0.162894401588925 -2.451514889762731e-07   0.1550244155153054 -5.484312414504499e-07   0.1588724130907014 -3.955248935707745e-07
   0.154104195489559 -5.645067447427209e-07   0.1596182782471953 -3.222616695740702e-07   0.1658610738604635 -1.657777277237263e-07   0.1694330946242049 1.308545356594776e-07
  0.1647514391471983 -1.933716191152239e-07    0.167194603035954 -3.025760330839067e-08    0.151575293957388 -5.255895245956204e-07   0.7743341817684753    179.9999994093833

!
             1.16591    0.821785063236054    179.9999998678911   0.1754957866401073 3.538824433684915e-07   0.1631840493670393 -2.104032502982427e-07   0.1678041427252636 -2.314134852354646e-08
  0.1605031527158854 -2.865078085734197e-07     0.16706033755624 -1.849680693593977e-08   0.1654109526911062 -6.082838093736287e-08    0.166141112555531 -4.00778831462045e-08
  0.1667191737910407 -6.117089034975108e-09   0.1672008982809548 9.525986864537662e-09   0.1572604837013074 -3.030218849967205e-07    0.165004972101357 -1.031296626993056e-07
  0.1754957866401074 3.538824433684912e-07    0.800049694943212    179.9999994581921   0.1610434272294519 -4.129833319549992e-07   0.1655411594422593 -2.302215741509323e-07
  0.1584022931560997 -4.964733172173003e-07   0.1648221353622104 -2.322783681257475e-07   0.1632547234702051 -2.450567087406965e-07   0.1639890656815845 -2.316813913758694e-07
  0.1645100669989623 -2.142731266242077e-07   0.1649872350476662 -1.936305477385684e-07   0.1551093992155169 -5.031496565774155e-07   0.1628944015889254 -2.858245725123297e-07
  0.1631840493670391 -2.104032502982413e-07   0.1610434272294516 -4.129833319549968e-07   0.7535029318138636      179.99999908321   0.1738434107304287 1.176508401003901e-07
  0.1601197008154211 -3.528571616248881e-07   0.1647926053178329 -1.715842605010022e-07   0.1572659769639149 -4.481673079152364e-07    0.156901922487624 -5.394593185558274e-07
  0.1581774241340864 -4.20889254369862e-07   0.1575911303612561 -5.027204108074473e-07   0.1455588677812815 -9.084655757723662e-07   0.1550244155153055 -6.394214687194947e-07
  0.1678041427252637 -2.314134852354618e-08   0.1655411594422591 -2.302215741509304e-07   0.1738434107304287 1.176508401003906e-07   0.7928348004447392     179.999999433762
  0.1623165144723138 -2.97000666451206e-07   0.1691456817885522 -4.392637459495836e-08   0.1610947148944239 -2.928299405428849e-07   0.1607307623099562 -3.675610328154907e-07
  0.1624448620855651 -2.544641110717144e-07   0.1615693084578151 -3.275810732285161e-07   0.1494718293372364 -6.981961680304576e-07   0.1588724130907015 -4.611464286631021e-07
  0.1605031527158853 -2.865078085734185e-07   0.1584022931560999 -4.964733172173016e-07   0.1601197008154215 -3.528571616248904e-07   0.1623165144723138 -2.970006664512072e-07
  0.7367180863790336     179.999998975891   0.1669221213673165 -6.431055220972773e-08   0.1591560271552895 -3.501375637291453e-07   0.1565398483398656 -5.321124792240273e-07
   0.158645358420391 -3.576370687382884e-07   0.1569472878256936 -5.15115452494841e-07   0.1430615855109754 -1.000278960969604e-06   0.1541041954895598 -6.581640587629896e-07
  0.1670603375562397 -1.849680693593673e-08   0.1648221353622111 -2.322783681257538e-07   0.1647926053178327 -1.715842605010013e-07   0.1691456817885512 -4.392637459495055e-08
  0.1669221213673162 -6.43105522097247e-08   0.7954491236508937    179.9999995199931   0.1634978527191031 -1.620776607622261e-07    0.161943842626791 -2.810706692984078e-07
  0.1661446125227305  -1.264295629846e-07     0.16275710279206 -2.470074303476167e-07   0.1487445522406392 -7.207789490461647e-07   0.1596182782471954 -3.757281031731042e-07
  0.1654109526911061 -6.082838093736112e-08   0.1632547234702051 -2.450567087406966e-07    0.157265976963915 -4.481673079152371e-07   0.1610947148944249 -2.928299405428926e-07
  0.1591560271552895 -3.50137563729145e-07   0.1634978527191004 -1.620776607622049e-07   0.7968780717812733    179.9999995252435   0.1710502381740347 -6.630300758484591e-08
  0.1725804230312043 1.895106998967724e-07   0.1689957690660039 -8.704643625877595e-08   0.1487103186453037 -7.358046528507852e-07   0.1658610738604635 -1.932819105303702e-07
  0.1661411125555305 -4.007788314620065e-08   0.1639890656815848 -2.316813913758713e-07   0.1569019224876234 -5.394593185558247e-07   0.1607307623099557 -3.675610328154871e-07
  0.1565398483398648 -5.321124792240223e-07   0.1619438426267922 -2.810706692984164e-07   0.1710502381740349 -6.630300758484751e-08   0.7973373118003036    179.9999995044173
  0.1686107677197289 -1.096465270061328e-07   0.1724375237522972 9.645106600975621e-08   0.1495591324184635 -6.478066086974772e-07   0.1694330946242048 1.525646116707432e-07
  0.1667191737910407 -6.117089034974452e-09   0.1645100669989615 -2.142731266242017e-07   0.1581774241340858 -4.208892543698584e-07   0.1624448620855652 -2.544641110717147e-07
  0.1586453584203905 -3.576370687382848e-07   0.1661446125227331 -1.264295629846211e-07    0.172580423031199 1.895106998968222e-07   0.1686107677197315 -1.09646527006153e-07
  0.8016031621102671    179.9999995520556   0.1696257048935151 -8.223241084607459e-08   0.1493933282556233 -7.141262620575619e-07   0.1647514391471985 -2.254539044426318e-07
  0.1672008982809545 9.525986864539768e-09   0.1649872350476664 -1.936305477385692e-07   0.1575911303612566 -5.027204108074498e-07   0.1615693084578144 -3.275810732285111e-07
   0.156947287825693 -5.151154524948373e-07   0.1627571027920596 -2.470074303476139e-07   0.1689957690660069 -8.704643625880023e-08   0.1724375237522963 9.645106600976343e-08
  0.1696257048935133 -8.22324108460608e-08    0.799206672128663    179.9999995043561   0.1499001075052254 -6.734474457427861e-07   0.1671946030359538 -3.527764227328421e-08
  0.1572604837013072 -3.03021884996719e-07   0.1551093992155168 -5.031496565774152e-07   0.1455588677812815 -9.084655757723657e-07   0.1494718293372365 -6.981961680304585e-07
  0.1430615855109751 -1.000278960969603e-06   0.1487445522406395 -7.207789490461665e-07   0.1487103186453038 -7.358046528507859e-07   0.1495591324184637 -6.478066086974786e-07
  0.1493933282556236 -7.141262620575635e-07   0.1499001075052256 -6.734474457427873e-07   0.6483448996791851    179.9999982827996   0.1515752939573884 -6.127900826212815e-07
  0.1650049721013568 -1.031296626993035e-07    0.162894401588925 -2.858245725123265e-07   0.1550244155153054 -6.394214687194942e-07   0.1588724130907014 -4.611464286631017e-07
   0.154104195489559 -6.581640587629859e-07   0.1596182782471953 -3.757281031731042e-07   0.1658610738604635 -1.932819105303698e-07   0.1694330946242049 1.525646116707415e-07
  0.1647514391471983 -2.254539044426307e-07    0.167194603035954 -3.527764227328575e-08    0.151575293957388 -6.127900826212798e-07   0.7743341817684753    179.9999993113941

!
             1.35936    0.821785063236054    179.9999998459714   0.1754957866401073 4.125992900115725e-07   0.1631840493670393 -2.453137569155588e-07   0.1678041427252636 -2.698100499092393e-08
  0.1605031527158854 -3.340457279398613e-07     0.16706033755624 -2.156583224814874e-08   0.1654109526911062 -7.092114134968704e-08    0.166141112555531 -4.672768158230442e-08
  0.1667191737910407 -7.132048057383311e-09   0.1672008982809548 1.11065566846308e-08   0.1572604837013074 -3.532998512656568e-07    0.165004972101357 -1.202411320658782e-07
  0.1754957866401074 4.125992900115722e-07   0.8000496949432118    179.9999993682943   0.1610434272294519 -4.81506310200914e-07   0.1655411594422593 -2.684203746754135e-07
  0.1584022931560997 -5.788491122749692e-07   0.1648221353622104 -2.708184358101535e-07   0.1632547234702051 -2.857169829521603e-07   0.1639890656815845 -2.701224075449236e-07
  0.1645100669989623 -2.498257304662307e-07   0.1649872350476662 -2.257580957139919e-07   0.1551093992155169 -5.866332025328503e-07   0.1628944015889254 -3.332491280547904e-07
  0.1631840493670391 -2.453137569155571e-07   0.1610434272294516 -4.815063102009111e-07   0.7535029318138636    179.9999989310945   0.1738434107304287 1.37171690781335e-07
  0.1601197008154211 -4.114038915751713e-07   0.1647926053178329 -2.000538466559532e-07   0.1572659769639149 -5.225280782287277e-07    0.156901922487624 -6.289674325394325e-07
  0.1581774241340864 -4.907239982676326e-07   0.1575911303612561 -5.861327354900562e-07   0.1455588677812815 -1.059199908296458e-06   0.1550244155153055 -7.455154923780839e-07
  0.1678041427252637 -2.698100499092361e-08   0.1655411594422591 -2.684203746754114e-07   0.1738434107304287 1.371716907813356e-07   0.7928348004447392    179.9999993398108
  0.1623165144723138 -3.462795807112997e-07   0.1691456817885522 -5.121472203635151e-08   0.1610947148944239 -3.414168400445798e-07   0.1607307623099562 -4.285474569804407e-07
  0.1624448620855651 -2.966852793324061e-07   0.1615693084578151 -3.819339466201642e-07   0.1494718293372364 -8.140422013482026e-07   0.1588724130907015 -5.376607193243684e-07
  0.1605031527158853 -3.340457279398599e-07   0.1584022931560999 -5.788491122749705e-07   0.1601197008154215 -4.114038915751739e-07   0.1623165144723139 -3.46279580711301e-07
  0.7367180863790334    179.9999988059689   0.1669221213673165 -7.498108108843346e-08   0.1591560271552895 -4.082330528349965e-07   0.1565398483398656 -6.204015916820112e-07
   0.158645358420391 -4.169768899486921e-07   0.1569472878256936 -6.005843860189785e-07   0.1430615855109754 -1.166247144619774e-06   0.1541041954895598 -7.673678885334698e-07
  0.1670603375562397 -2.15658322481452e-08   0.1648221353622111 -2.708184358101609e-07   0.1647926053178327 -2.000538466559521e-07   0.1691456817885513 -5.121472203634245e-08
  0.1669221213673162 -7.498108108842995e-08   0.7954491236508937    179.9999994403495   0.1634978527191031 -1.889698938457854e-07    0.161943842626791 -3.277064481971024e-07
  0.1661446125227305 -1.474069960277774e-07     0.16275710279206 -2.879913719904076e-07   0.1487445522406393 -8.403719602502717e-07   0.1596182782471954 -4.380696231522081e-07
  0.1654109526911061 -7.092114134968498e-08   0.1632547234702051 -2.857169829521603e-07    0.157265976963915 -5.225280782287284e-07   0.1610947148944249 -3.414168400445888e-07
  0.1591560271552895 -4.082330528349962e-07   0.1634978527191003 -1.889698938457608e-07   0.7968780717812733    179.9999994464709   0.1710502381740347 -7.730412844090551e-08
  0.1725804230312043 2.209546748991575e-07   0.1689957690660039 -1.014893461697127e-07   0.1487103186453037 -8.578907573476883e-07   0.1658610738604635 -2.253516119585251e-07
  0.1661411125555305 -4.672768158229993e-08   0.1639890656815848 -2.701224075449259e-07   0.1569019224876234 -6.28967432539429e-07   0.1607307623099557 -4.285474569804364e-07
  0.1565398483398648 -6.204015916820054e-07   0.1619438426267922 -3.277064481971124e-07   0.1710502381740349 -7.730412844090737e-08   0.7973373118003036    179.9999994221893
  0.1686107677197289 -1.278392868669594e-07   0.1724375237522972 1.124544099381789e-07   0.1495591324184635 -7.552919106955105e-07   0.1694330946242048 1.778784215940694e-07
  0.1667191737910407 -7.132048057382557e-09   0.1645100669989615 -2.498257304662237e-07   0.1581774241340858 -4.907239982676285e-07   0.1624448620855652 -2.966852793324065e-07
  0.1586453584203905 -4.169768899486879e-07   0.1661446125227331 -1.474069960278019e-07    0.172580423031199 2.209546748992154e-07   0.1686107677197315 -1.278392868669831e-07
  0.8016031621102668    179.9999994777318   0.1696257048935151 -9.587656852391689e-08   0.1493933282556233 -8.326154468102747e-07   0.1647514391471985 -2.62861644160472e-07
  0.1672008982809545 1.110655668463326e-08   0.1649872350476664 -2.257580957139929e-07   0.1575911303612566 -5.861327354900592e-07   0.1615693084578144 -3.819339466201583e-07
   0.156947287825693 -6.005843860189742e-07   0.1627571027920596 -2.879913719904044e-07   0.1689957690660069 -1.01489346169741e-07   0.1724375237522963 1.124544099381873e-07
  0.1696257048935133 -9.587656852390085e-08    0.799206672128663     179.999999422118   0.1499001075052254 -7.851871240875485e-07   0.1671946030359538 -4.113097563329212e-08
  0.1572604837013072 -3.532998512656552e-07   0.1551093992155168 -5.866332025328501e-07   0.1455588677812815 -1.059199908296458e-06   0.1494718293372365 -8.140422013482036e-07
  0.1430615855109751 -1.166247144619773e-06   0.1487445522406395 -8.403719602502741e-07   0.1487103186453038 -8.578907573476891e-07   0.1495591324184637 -7.552919106955123e-07
  0.1493933282556236 -8.326154468102763e-07   0.1499001075052256 -7.851871240875498e-07    0.648344899679185    179.9999979978784   0.1515752939573884 -7.144653761543047e-07
  0.1650049721013568 -1.202411320658758e-07    0.162894401588925 -3.332491280547866e-07   0.1550244155153054 -7.455154923780836e-07   0.1588724130907014 -5.37660719324368e-07
   0.154104195489559 -7.673678885334652e-07   0.1596182782471953 -4.380696231522079e-07   0.1658610738604635 -2.253516119585246e-07   0.1694330946242049 1.778784215940674e-07
  0.1647514391471983 -2.628616441604708e-07    0.167194603035954 -4.113097563329397e-08    0.151575293957388 -7.144653761543026e-07   0.7743341817684755    179.9999991971393

!
              1.4678    0.821785063236054    179.9999998336841   0.1754957866401073 4.45513504795629e-07   0.1631840493670393 -2.648831305913498e-07   0.1678041427252636 -2.913335623063659e-08
  0.1605031527158854 -3.606935024350639e-07     0.16706033755624 -2.328619981008172e-08   0.1654109526911062 -7.657872180516613e-08    0.166141112555531 -5.045528118122237e-08
  0.1667191737910407 -7.700991745105962e-09   0.1672008982809548 1.199255819039922e-08   0.1572604837013074 -3.814835817500376e-07    0.165004972101357 -1.298331079672023e-07
  0.1754957866401074 4.455135047956286e-07   0.8000496949432119    179.9999993179013   0.1610434272294519 -5.199174332869156e-07   0.1655411594422593 -2.89833028740416e-07
  0.1584022931560997 -6.25025546578684e-07   0.1648221353622104 -2.92422390008639e-07   0.1632547234702051 -3.085094364827425e-07   0.1639890656815845 -2.916708375959561e-07
  0.1645100669989623 -2.697550370603323e-07   0.1649872350476662 -2.437674588696132e-07   0.1551093992155169 -6.334305957786883e-07   0.1628944015889254 -3.598333555193777e-07
  0.1631840493670391 -2.64883130591348e-07   0.1610434272294516 -5.199174332869126e-07   0.7535029318138636    179.9999988458248   0.1738434107304287 1.481142653372494e-07
  0.1601197008154211 -4.442227460378681e-07   0.1647926053178329 -2.160127090113054e-07   0.1572659769639149 -5.642116240172774e-07    0.156901922487624 -6.791419472997433e-07
  0.1581774241340864 -5.298704424561788e-07   0.1575911303612561 -6.328902050614293e-07   0.1455588677812815 -1.143695287045037e-06   0.1550244155153055 -8.049873762009709e-07
  0.1678041427252637 -2.913335623063624e-08   0.1655411594422591 -2.898330287404137e-07   0.1738434107304287  1.4811426533725e-07   0.7928348004447393    179.9999992871456
  0.1623165144723138 -3.739032843161823e-07   0.1691456817885522 -5.530026556979519e-08   0.1610947148944239 -3.686526290441341e-07   0.1607307623099562 -4.627339022450938e-07
  0.1624448620855651 -3.203527049524083e-07   0.1615693084578151 -4.124019000478732e-07   0.1494718293372364 -8.789806549691704e-07   0.1588724130907015 -5.805514387831832e-07
  0.1605031527158853 -3.606935024350624e-07   0.1584022931560999 -6.250255465786853e-07   0.1601197008154215 -4.44222746037871e-07   0.1623165144723139 -3.739032843161838e-07
  0.7367180863790335    179.9999987107176   0.1669221213673165 -8.096253444385794e-08   0.1591560271552895 -4.407989605043609e-07   0.1565398483398656 -6.698927850391772e-07
   0.158645358420391 -4.502403182870545e-07   0.1569472878256936 -6.484947047129948e-07   0.1430615855109754 -1.259281984811164e-06   0.1541041954895598 -8.285829999333706e-07
  0.1670603375562397 -2.32861998100779e-08   0.1648221353622111 -2.924223900086468e-07   0.1647926053178327 -2.160127090113043e-07   0.1691456817885513 -5.530026556978535e-08
  0.1669221213673162 -8.096253444385416e-08   0.7954491236508937    179.9999993957045   0.1634978527191031 -2.040445578705007e-07    0.161943842626791 -3.538485203799633e-07
  0.1661446125227305 -1.5916606989287e-07     0.16275710279206 -3.109652599808148e-07   0.1487445522406393 -9.074108133646338e-07   0.1596182782471954 -4.730156786008203e-07
  0.1654109526911061 -7.657872180516392e-08   0.1632547234702051 -3.085094364827426e-07    0.157265976963915 -5.642116240172785e-07   0.1610947148944249 -3.68652629044144e-07
  0.1591560271552895 -4.407989605043604e-07   0.1634978527191003 -2.040445578704742e-07   0.7968780717812733    179.9999994023144   0.1710502381740347 -8.34708978677916e-08