! Touchstone data
! Created: 17-Jun-2025 by IdEM 2023 (2023.0.0)
!
!*********************************************************
! COMMENTS
!*********************************************************
!
!  Touchstone file exported from Ansys Full-Wave Spice
!  Project: 0000_PSI_S-parameter_Sweep
!   Design: unknown
!  Creation time: Tue Jun 17 18:13:01 2025
!  Notes: ! Touchstone(R) file created by SIwave 2025 R1
!       : ! Touchstone(R) file created on Tue Jun 17 18:13:01 2025
! 
!  Modal data exported
!  Port[1] = PORT_1_BGA1_GRP_1_1_VDD_075_BGA1_GRP_1_1_VSS
!  Port[2] = PORT_2_DIE1_GRP_0_0_VDD_075_DIE1_GRP_0_0_VSS
!  Port[3] = PORT_3_DIE1_GRP_0_1_VDD_075_DIE1_GRP_0_1_VSS
!  Port[4] = PORT_4_DIE1_GRP_1_0_VDD_075_DIE1_GRP_1_0_VSS
!  Port[5] = PORT_5_DIE1_GRP_1_1_VDD_075_DIE1_GRP_1_1_VSS
!  Port[6] = PORT_6_DIE1_GRP_2_0_VDD_075_DIE1_GRP_2_0_VSS
!  Port[7] = PORT_7_DIE1_GRP_2_1_VDD_075_DIE1_GRP_2_1_VSS
!  Port[8] = VDD_075_B3_2
!  Port[9] = VDD_075_B4_2
!  Port[10] = VDD_075_C37_2
!  Port[11] = VDD_075_C38_2
!  Port[12] = VDD_075_C78_2
!
!*********************************************************
!
!
!---------------------------
! Options Used in IdEM Flow
!---------------------------
!
! Fitting Options !
!
! Bandwidth: 1.0000e+09 Hz
! Order: [2 2 6] 
! SplitType: none 
! tol: 1.0000e-03 
! DC Point: enforced 
!
!---------------------------
!
! Passivity Options !
!
! Alg: SOC+HAM 
!    Max SOC it: 200 
!    Max HAM it: 50 
! Freq sampling: adaptive
! DC Point: enforced
! Optimization method: Model based
!
!---------------------------
!

# Hz S MA R 0.1

!
                   0   0.7984802379544821                  180   0.1533575384596957                    0   0.1785753255651252                    0   0.1647496851610604                    0
  0.1707766307802751                    0   0.1618552855616552                    0   0.1665977867427499                    0   0.1578235921228214                    0
  0.1562675613871253                    0   0.1615445931545994                    0   0.1621252296115708                    0   0.1648070082975805                    0
   0.153357538459696                    0   0.6274431058677237                  180   0.1529008886618768                    0   0.1556772853412277                    0
  0.1547968202986369                    0   0.1488103594823653                    0    0.151505530314984                    0   0.1457420188824074                    0
  0.1443181308865371                    0   0.1387850244037303                    0   0.1393327985764249                    0   0.1422167094496169                    0
  0.1785753255651252                    0   0.1529008886618765                    0   0.8100918605382033                  180   0.1619415448443833                    0
   0.167676006088522                    0   0.1589642498896285                    0   0.1635883558287261                    0   0.1550266508684421                    0
  0.1534991356262546                    0   0.1713479282641773                    0   0.1719753130349644                    0   0.1745964607558811                    0
  0.1647496851610606                    0   0.1556772853412274                    0   0.1619415448443835                    0   0.7955226453562143                  180
  0.1742679057664238                    0   0.1757837615800979                    0   0.1723946319504668                    0   0.1742418016050792                    0
  0.1725970303728642                    0   0.1466978819673869                    0   0.1472452567602653                    0   0.1499258588967354                    0
  0.1707766307802754                    0   0.1547968202986366                    0   0.1676760060885218                    0    0.174267905766424                    0
  0.8154809795993307                  180   0.1734211734419056                    0   0.1796254465268001                    0   0.1686427558684629                    0
  0.1669742432850981                    0   0.1518321698158411                    0   0.1523889487118145                    0   0.1550788779053285                    0
  0.1618552855616557                    0   0.1488103594823652                    0   0.1589642498896287                    0   0.1757837615800979                    0
  0.1734211734419051                    0   0.7956512892881854                  180   0.1779925880411332                    0   0.1825216765001161                    0
  0.1807523707852465                    0   0.1439679418588616                    0   0.1444994333016023                    0   0.1470824477353506                    0
  0.1665977867427501                    0   0.1515055303149833                    0   0.1635883558287257                    0   0.1723946319504664                    0
  0.1796254465267997                    0   0.1779925880411329                    0   0.7973200715945836                  180   0.1695486810767985                    0
  0.1678905080607322                    0   0.1481442479500205                    0   0.1486912703663174                    0   0.1513410236256321                    0
  0.1578235921228216                    0    0.145742018882407                    0   0.1550266508684421                    0    0.174241801605079                    0
  0.1686427558684631                    0   0.1825216765001164                    0   0.1695486810767992                    0   0.7805237285761679                  180
   0.202159663991681                    0   0.1404107735760547                    0   0.1409327741296231                    0   0.1434733388444587                    0
  0.1562675613871256                    0   0.1443181308865367                    0   0.1534991356262543                    0   0.1725970303728644                    0
  0.1669742432850978                    0   0.1807523707852464                    0   0.1678905080607322                    0   0.2021596639916802                    0
  0.7650911182510913                  180    0.139027554668077                    0   0.1395444736743377                    0   0.1420604444029138                    0
  0.1615445931545995                    0   0.1387850244037299                    0   0.1713479282641773                    0   0.1466978819673866                    0
  0.1518321698158406                    0   0.1439679418588617                    0   0.1481442479500205                    0   0.1404107735760544                    0
  0.1390275546680766                    0   0.7215401487645057                  180   0.2202614001296806                    0   0.1595206318658546                    0
  0.1621252296115709                    0   0.1393327985764244                    0   0.1719753130349639                    0   0.1472452567602653                    0
   0.152388948711815                    0   0.1444994333016018                    0   0.1486912703663173                    0   0.1409327741296229                    0
  0.1395444736743374                    0   0.2202614001296802                    0   0.7276065010572432                  180   0.1606096016504205                    0
  0.1648070082975807                    0    0.142216709449617                    0   0.1745964607558811                    0   0.1499258588967354                    0
  0.1550788779053283                    0   0.1470824477353505                    0   0.1513410236256324                    0   0.1434733388444585                    0
   0.142060444402914                    0   0.1595206318658547                    0   0.1606096016504206                    0   0.6907124045399973                  180

!
                   1   0.7984802379544822    179.9999992615781   0.1533575384596956 -3.376032838986303e-07   0.1785753255651252 1.025243837235055e-07   0.1647496851610604 -1.874096107990289e-07
  0.1707766307802751 9.531305124548377e-08   0.1618552855616552 -2.208622939115235e-07   0.1665977867427499 -4.063917357487978e-08   0.1578235921228214 -5.318321261435532e-07
  0.1562675613871253 -6.16593128696129e-07   0.1615445931545993 -7.902271413299435e-07   0.1621252296115707 -6.949306358082586e-07   0.1648070082975804 -4.829170629442714e-07
   0.153357538459696 -3.376032838986442e-07   0.6274431058677236    179.9999988531125   0.1529008886618768 -1.973213767900541e-07   0.1556772853412277 -1.494788999776493e-07
  0.1547968202986369 -1.505581951549437e-07   0.1488103594823653 -3.816959219378334e-07    0.151505530314984 -2.635499767768172e-07   0.1457420188824074 -5.471388244453411e-07
  0.1443181308865371 -6.241425592844031e-07   0.1387850244037303 -9.163601300516108e-07   0.1393327985764249 -8.292090222692156e-07   0.1422167094496169 -5.90614307098758e-07
  0.1785753255651251 1.025243837235072e-07   0.1529008886618765 -1.973213767900433e-07   0.8100918605382033    179.9999997513384   0.1619415448443833 -1.887620471788941e-07
  0.1676760060885221 1.220305928231998e-07   0.1589642498896285 -1.940106836379374e-07   0.1635883558287261 -5.948037798508412e-08   0.1550266508684421 -5.027857784504762e-07
  0.1534991356262545 -6.206348242024247e-07   0.1713479282641773 -6.683901959637854e-08   0.1719753130349644 3.314588767806177e-08   0.1745964607558811 2.292104451043328e-07
  0.1647496851610606 -1.874096107990348e-07   0.1556772853412274 -1.494788999776395e-07   0.1619415448443834  -1.887620471789e-07   0.7955226453562143    179.9999995005675
  0.1742679057664238 1.740786523821329e-07   0.1757837615800979 1.152331946150979e-07   0.1723946319504668 7.218585524650324e-08   0.1742418016050792 1.322590488155488e-07
  0.1725970303728642 8.700339776376896e-09   0.1466978819673868 -1.055470533583127e-06   0.1472452567602653 -9.565609591929118e-07   0.1499258588967353 -7.037078890170435e-07
  0.1707766307802754 9.531305124547209e-08   0.1547968202986365 -1.505581951549339e-07   0.1676760060885218 1.220305928232084e-07    0.174267905766424 1.74078652382127e-07
  0.8154809795993307    179.9999998274173   0.1734211734419056 2.873554440619499e-07   0.1796254465268001 5.773542835159835e-07   0.1686427558684629 -6.233664161337418e-08
  0.1669742432850981 -1.971904393407969e-07   0.1518321698158411 -7.745861409929729e-07   0.1523889487118145 -6.788473008890559e-07   0.1550788779053285 -4.516163620650367e-07
  0.1618552855616557 -2.208622939115351e-07   0.1488103594823652 -3.816959219378307e-07   0.1589642498896287 -1.940106836379399e-07   0.1757837615800979 1.152331946150971e-07
  0.1734211734419051 2.873554440619655e-07   0.7956512892881852    179.9999996100773   0.1779925880411332 4.709381726151414e-07   0.1825216765001161 2.404451511421324e-07
  0.1807523707852465 7.671022080368123e-08   0.1439679418588616 -1.059298102354686e-06   0.1444994333016023 -9.631993025832073e-07   0.1470824477353506 -7.337948076576907e-07
  0.1665977867427501 -4.063917357488234e-08   0.1515055303149833 -2.635499767767949e-07   0.1635883558287257 -5.948037798507469e-08   0.1723946319504664 7.218585524651496e-08
  0.1796254465267997 5.773542835159925e-07    0.177992588041133 4.709381726151433e-07   0.7973200715945836     179.999999700431   0.1695486810767985 -6.390566808238609e-08
  0.1678905080607323 -2.181767638888993e-07   0.1481442479500205 -8.916881299607808e-07   0.1486912703663174 -7.947265445654296e-07   0.1513410236256321 -5.682691655435194e-07
  0.1578235921228216 -5.31832126143559e-07    0.145742018882407 -5.471388244453279e-07   0.1550266508684421 -5.02785778450477e-07    0.174241801605079 1.322590488155532e-07
  0.1686427558684631  -6.233664161338e-08   0.1825216765001165 2.404451511421227e-07   0.1695486810767992 -6.390566808240837e-08   0.7805237285761677    179.9999993629844
   0.202159663991681 1.022688860168883e-06   0.1404107735760547 -1.359214004707821e-06   0.1409327741296231 -1.265353812542414e-06   0.1434733388444587 -9.807886072345121e-07
  0.1562675613871256 -6.165931286961354e-07   0.1443181308865367 -6.2414255928439e-07   0.1534991356262543 -6.206348242024182e-07   0.1725970303728644 8.700339776370311e-09
  0.1669742432850978 -1.971904393407871e-07   0.1807523707852464 7.671022080368369e-08   0.1678905080607322 -2.181767638888978e-07   0.2021596639916804  1.0226888601689e-06
   0.765091118251091    179.9999991163654    0.139027554668077 -1.474687642880437e-06   0.1395444736743376 -1.373180747781999e-06   0.1420604444029138 -1.074154156930205e-06
  0.1615445931545994 -7.90227141329945e-07   0.1387850244037299 -9.163601300515992e-07   0.1713479282641773 -6.683901959638022e-08   0.1466978819673866 -1.055470533583119e-06
  0.1518321698158405 -7.745861409929577e-07   0.1439679418588616 -1.059298102354687e-06   0.1481442479500205 -8.916881299607803e-07   0.1404107735760544 -1.359214004707815e-06
  0.1390275546680766 -1.47468764288043e-06   0.7215401487645055    179.9999987435911   0.2202614001296809 1.710246207669351e-06   0.1595206318658546 -4.172100608547533e-07
  0.1621252296115709 -6.949306358082617e-07   0.1393327985764244 -8.292090222692034e-07   0.1719753130349639 3.314588767807503e-08   0.1472452567602652 -9.565609591929097e-07
   0.152388948711815 -6.788473008890702e-07   0.1444994333016018 -9.631993025831906e-07   0.1486912703663173 -7.947265445654272e-07   0.1409327741296229 -1.265353812542407e-06
  0.1395444736743373 -1.373180747781989e-06   0.2202614001296807 1.710246207669356e-06   0.7276065010572433    179.9999989426856   0.1606096016504205 -3.404203788286353e-07
  0.1648070082975806 -4.829170629442776e-07    0.142216709449617 -5.906143070987605e-07   0.1745964607558811 2.29210445104331e-07   0.1499258588967353 -7.037078890170443e-07
  0.1550788779053282 -4.516163620650311e-07   0.1470824477353505 -7.337948076576874e-07   0.1513410236256324 -5.68269165543527e-07   0.1434733388444585 -9.807886072345073e-07
   0.142060444402914 -1.07415415693021e-06   0.1595206318658547 -4.172100608547557e-07   0.1606096016504207 -3.404203788286404e-07   0.6907124045399975    179.9999986895503

!
             1.16591    0.798480237954482    179.9999991390665   0.1533575384596956 -3.936150447302518e-07   0.1785753255651252 1.195342042270725e-07   0.1647496851610604 -2.185027393266958e-07
  0.1707766307802751 1.111264395776219e-07   0.1618552855616552 -2.575055570943842e-07   0.1665977867427499 -4.738161886268813e-08   0.1578235921228214 -6.200683941920299e-07
  0.1562675613871253 -7.188920946781035e-07   0.1615445931545993 -9.21333726347994e-07   0.1621252296115707 -8.102265775952065e-07   0.1648070082975804 -5.630378328573551e-07
   0.153357538459696 -3.936150447302679e-07   0.6274431058677234    179.9999986628324   0.1529008886618768 -2.300589664132918e-07   0.1556772853412277 -1.742789442729409e-07
  0.1547968202986369 -1.755373053131002e-07   0.1488103594823653 -4.450230923465391e-07    0.151505530314984 -3.072755534238587e-07   0.1457420188824074 -6.379146268090674e-07
  0.1443181308865371 -7.276940512952783e-07   0.1387850244037303 -1.068393439228474e-06   0.1393327985764248 -9.66783091153901e-07   0.1422167094496168 -6.886031267895129e-07
  0.1785753255651251 1.195342042270744e-07   0.1529008886618765 -2.300589664132792e-07   0.8100918605382033     179.999999710083   0.1619415448443832 -2.200795584263443e-07
  0.1676760060885221 1.422766884784969e-07   0.1589642498896285 -2.261989961603076e-07   0.1635883558287261 -6.934876749658929e-08   0.1550266508684421 -5.862029669531944e-07
  0.1534991356262545 -7.236043478858486e-07   0.1713479282641773 -7.792828133761378e-08   0.1719753130349644 3.864512190272892e-08   0.1745964607558811 2.672387500515925e-07
  0.1647496851610606 -2.185027393267025e-07   0.1556772853412274 -1.742789442729296e-07   0.1619415448443834 -2.200795584263512e-07   0.7955226453562139    179.9999994177066
  0.1742679057664238 2.029600415988524e-07   0.1757837615800979 1.343515339336885e-07   0.1723946319504668 8.41622104904505e-08   0.1742418016050792 1.542021476045364e-07
  0.1725970303728642 1.014381314867555e-08   0.1466978819673868 -1.230583649809903e-06   0.1472452567602653 -1.115263987932607e-06   0.1499258588967353 -8.204600648838608e-07
  0.1707766307802755 1.111264395776082e-07   0.1547968202986366 -1.755373053130888e-07   0.1676760060885218 1.422766884785069e-07    0.174267905766424 2.029600415988455e-07
  0.8154809795993307    179.9999997987841   0.1734211734419056 3.350305857862678e-07   0.1796254465268001 6.731431326941199e-07   0.1686427558684629 -7.267891382344917e-08
  0.1669742432850981 -2.299063051318285e-07   0.1518321698158411 -9.030977276451166e-07   0.1523889487118145 -7.914748565795588e-07   0.1550788779053284 -5.26544032695247e-07
  0.1618552855616557 -2.575055570943977e-07   0.1488103594823652 -4.450230923465359e-07   0.1589642498896287 -2.261989961603105e-07   0.1757837615800979 1.343515339336877e-07
  0.1734211734419051 3.350305857862861e-07   0.7956512892881852    179.9999995453852   0.1779925880411332 5.490715248337194e-07   0.1825216765001162 2.803374061681235e-07
  0.1807523707852466 8.943721353721995e-08   0.1439679418588616 -1.235046250516351e-06   0.1444994333016023 -1.123003698874787e-06   0.1470824477353506 -8.555387041961779e-07
  0.1665977867427501 -4.738161886269106e-08   0.1515055303149833 -3.072755534238327e-07   0.1635883558287257 -6.934876749657829e-08   0.1723946319504664 8.416221049046419e-08
  0.1796254465267997 6.731431326941304e-07    0.177992588041133 5.490715248337216e-07   0.7973200715945836    179.9999996507295   0.1695486810767985 -7.450825747393476e-08
  0.1678905080607323 -2.543744707857065e-07   0.1481442479500205 -1.039628107602574e-06   0.1486912703663173 -9.265796255742799e-07   0.1513410236256321 -6.625507027988446e-07
  0.1578235921228216 -6.200683941920366e-07    0.145742018882407 -6.379146268090521e-07   0.1550266508684421 -5.862029669531954e-07   0.1742418016050791 1.542021476045414e-07
  0.1686427558684631 -7.267891382345589e-08   0.1825216765001165 2.803374061681121e-07   0.1695486810767992 -7.450825747396078e-08   0.7805237285761678    179.9999992572971
  0.2021596639916811 1.192363168959502e-06   0.1404107735760546 -1.584721200228896e-06   0.1409327741296231 -1.475288663581325e-06   0.1434733388444587 -1.14351124506079e-06
  0.1562675613871255 -7.188920946781111e-07   0.1443181308865367 -7.276940512952632e-07   0.1534991356262543 -7.236043478858412e-07   0.1725970303728644 1.014381314866794e-08
  0.1669742432850978 -2.299063051318171e-07   0.1807523707852464 8.943721353722276e-08   0.1678905080607322 -2.543744707857046e-07   0.2021596639916805 1.192363168959521e-06
   0.765091118251091    179.9999989697615   0.1390275546680769 -1.71935306971073e-06   0.1395444736743376 -1.60100516564651e-06   0.1420604444029138 -1.252367073106496e-06
  0.1615445931545994 -9.213337263479958e-07   0.1387850244037299 -1.06839343922846e-06   0.1713479282641773 -7.792828133761573e-08   0.1466978819673865 -1.230583649809895e-06
  0.1518321698158405 -9.03097727645099e-07   0.1439679418588616 -1.235046250516353e-06   0.1481442479500204 -1.039628107602573e-06   0.1404107735760544 -1.584721200228888e-06
  0.1390275546680766 -1.719353069710723e-06   0.7215401487645055    179.9999985351403    0.220261400129681 1.993993155983771e-06   0.1595206318658547 -4.864293820511654e-07
  0.1621252296115708 -8.102265775952102e-07   0.1393327985764244 -9.667830911538872e-07   0.1719753130349639 3.864512190274436e-08   0.1472452567602652 -1.115263987932605e-06
   0.152388948711815 -7.914748565795755e-07   0.1444994333016017 -1.123003698874768e-06   0.1486912703663173 -9.265796255742771e-07   0.1409327741296229 -1.475288663581318e-06
  0.1395444736743373 -1.601005165646499e-06   0.2202614001296808 1.993993155983777e-06    0.727606501057243    179.9999987672665   0.1606096016504205 -3.968995238800944e-07
  0.1648070082975806 -5.630378328573625e-07   0.1422167094496169 -6.886031267895159e-07   0.1745964607558812 2.672387500515905e-07   0.1499258588967353 -8.20460064883862e-07
  0.1550788779053282 -5.265440326952401e-07   0.1470824477353505 -8.555387041961741e-07   0.1513410236256324 -6.625507027988535e-07   0.1434733388444585 -1.143511245060785e-06
   0.142060444402914 -1.252367073106501e-06   0.1595206318658547 -4.864293820511686e-07   0.1606096016504207 -3.968995238801002e-07   0.6907124045399975    179.9999984721335

!
             1.35936   0.7984802379544818    179.9999989962187   0.1533575384596956 -4.589244000004414e-07   0.1785753255651252 1.393675462583848e-07   0.1647496851610604 -2.547571285357677e-07
  0.1707766307802751 1.295647493410607e-07   0.1618552855616552 -3.002313678515682e-07   0.1665977867427499 -5.524326699074852e-08   0.1578235921228213  -7.229513189945e-07
  0.1562675613871253 -8.381720354243695e-07   0.1615445931545993 -1.074203166838271e-06   0.1621252296115707 -9.446609090923136e-07   0.1648070082975804 -6.564581386839238e-07
   0.153357538459696 -4.589244000004604e-07   0.6274431058677234    179.9999984409669   0.1529008886618768 -2.682307867533275e-07   0.1556772853412277 -2.03195637473617e-07
  0.1547968202986369 -2.046627881658239e-07   0.1488103594823653 -5.188621684454127e-07    0.151505530314984 -3.582592964313338e-07   0.1457420188824074 -7.437586323980188e-07
  0.1443181308865371 -8.484344293888463e-07   0.1387850244037302 -1.245663306386958e-06   0.1393327985764248 -1.12719357651188e-06   0.1422167094496168 -8.028574644977676e-07
  0.1785753255651251 1.393675462583871e-07   0.1529008886618765 -2.682307867533128e-07   0.8100918605382033    179.9999996619794   0.1619415448443832 -2.565955764531011e-07
  0.1676760060885221 1.658835066601449e-07   0.1589642498896285 -2.637303629100665e-07    0.163588355828726 -8.085524661780354e-08   0.1550266508684421 -6.834668757944388e-07
  0.1534991356262546 -8.436661546278076e-07   0.1713479282641773 -9.085828967853338e-08   0.1719753130349644 4.505719387404976e-08   0.1745964607558811 3.115795106570254e-07
  0.1647496851610606 -2.547571285357757e-07   0.1556772853412274 -2.031956374736037e-07   0.1619415448443834 -2.565955764531091e-07   0.7955226453562139    179.9999993210914
  0.1742679057664238 2.366355569021758e-07   0.1757837615800979 1.56643395431979e-07   0.1723946319504668 9.812656418788642e-08   0.1742418016050792 1.797876605979039e-07
  0.1725970303728643 1.182689387841539e-08   0.1466978819673868 -1.434764424531558e-06   0.1472452567602653 -1.300310705488475e-06   0.1499258588967353 -9.565923560142078e-07
  0.1707766307802755 1.295647493410447e-07   0.1547968202986366 -2.046627881658106e-07   0.1676760060885218 1.658835066601567e-07    0.174267905766424 2.366355569021679e-07
  0.8154809795993307     179.999999765398   0.1734211734419056 3.906194964400519e-07   0.1796254465268001 7.848323188402864e-07   0.1686427558684629 -8.473793714355656e-08
  0.1669742432850981 -2.680527956223057e-07   0.1518321698158411 -1.052941416620207e-06   0.1523889487118144 -9.227978669365464e-07   0.1550788779053284 -6.139092179367282e-07
  0.1618552855616557 -3.00231367851584e-07   0.1488103594823652 -5.188621684454091e-07   0.1589642498896287 -2.6373036291007e-07   0.1757837615800979 1.566433954319779e-07
  0.1734211734419051 3.906194964400731e-07   0.7956512892881852    179.9999994699546   0.1779925880411332 6.401745143261184e-07   0.1825216765001162 3.268515206565686e-07
  0.1807523707852466 1.042768057516919e-07   0.1439679418588616 -1.439967468416865e-06   0.1444994333016022 -1.309334603959508e-06   0.1470824477353506 -9.974913097375576e-07
  0.1665977867427501 -5.5243266990752e-08   0.1515055303149833 -3.582592964313035e-07   0.1635883558287257 -8.08552466177907e-08   0.1723946319504664 9.81265641879024e-08
  0.1796254465267998 7.848323188402988e-07    0.177992588041133 6.40174514326121e-07   0.7973200715945836    179.9999995927778   0.1695486810767985 -8.687080896447248e-08
  0.1678905080607323 -2.965807657600141e-07   0.1481442479500205 -1.212125176343486e-06   0.1486912703663173 -1.080319475620462e-06   0.1513410236256321 -7.724823728732382e-07
  0.1578235921228216 -7.229513189945075e-07    0.145742018882407 -7.43758632398001e-07   0.1550266508684421 -6.8346687579444e-07   0.1742418016050791 1.797876605979098e-07
  0.1686427558684631 -8.473793714356443e-08   0.1825216765001165 3.268515206565554e-07   0.1695486810767992 -8.687080896450285e-08   0.7805237285761678    179.9999991340664
  0.2021596639916811 1.390202328959171e-06   0.1404107735760546 -1.847661149439623e-06    0.140932774129623 -1.720071358617654e-06   0.1434733388444587 -1.333244801130306e-06
  0.1562675613871256 -8.381720354243782e-07   0.1443181308865367 -8.484344293888286e-07   0.1534991356262543 -8.43666154627799e-07   0.1725970303728644 1.182689387840652e-08
  0.1669742432850978 -2.680527956222923e-07   0.1807523707852464 1.042768057516952e-07   0.1678905080607322 -2.96580765760012e-07   0.2021596639916805 1.390202328959194e-06
   0.765091118251091    179.9999987988224   0.1390275546680769 -2.004631394225949e-06   0.1395444736743376 -1.866646981304936e-06   0.1420604444029138 -1.460162194764644e-06
  0.1615445931545994 -1.074203166838273e-06   0.1387850244037299 -1.245663306386941e-06   0.1713479282641773 -9.085828967853567e-08   0.1466978819673865 -1.434764424531548e-06
  0.1518321698158405 -1.052941416620186e-06   0.1439679418588616 -1.439967468416867e-06   0.1481442479500204 -1.212125176343485e-06   0.1404107735760544 -1.847661149439614e-06
  0.1390275546680766 -2.004631394225941e-06   0.7215401487645053     179.999998292088   0.2202614001296811 2.324840284857405e-06   0.1595206318658547 -5.671386683235182e-07
  0.1621252296115708 -9.446609090923177e-07   0.1393327985764244 -1.127193576511864e-06   0.1719753130349639 4.505719387406779e-08   0.1472452567602652 -1.300310705488472e-06
   0.152388948711815 -9.227978669365659e-07   0.1444994333016017 -1.309334603959485e-06   0.1486912703663173 -1.080319475620458e-06   0.1409327741296228 -1.720071358617646e-06
  0.1395444736743373 -1.866646981304924e-06   0.2202614001296809 2.324840284857412e-06    0.727606501057243     179.999998562729   0.1606096016504205 -4.627538461644943e-07
  0.1648070082975806 -6.564581386839325e-07   0.1422167094496169 -8.028574644977711e-07   0.1745964607558812 3.11579510657023e-07   0.1499258588967353 -9.565923560142086e-07
  0.1550788779053282 -6.139092179367201e-07   0.1470824477353505 -9.974913097375536e-07   0.1513410236256324 -7.724823728732485e-07   0.1434733388444585 -1.3332448011303e-06
   0.142060444402914 -1.46016219476465e-06   0.1595206318658548 -5.671386683235216e-07   0.1606096016504207 -4.627538461645013e-07   0.6907124045399976     179.999998218627

!
              1.4678   0.7984802379544818    179.9999989161442   0.1533575384596956 -4.955341001064086e-07   0.1785753255651252 1.504852904293619e-07   0.1647496851610604 -2.750798267308143e-07
  0.1707766307802751 1.399004966181209e-07   0.1618552855616552 -3.241816750033336e-07   0.1665977867427499 -5.965017897320841e-08   0.1578235921228214 -7.806231947535067e-07
  0.1562675613871253 -9.050353943001775e-07   0.1615445931545993 -1.159895398044089e-06   0.1621252296115707 -1.020019187239361e-06   0.1648070082975804 -7.088256649896003e-07
   0.153357538459696 -4.95534100106429e-07   0.6274431058677234    179.9999983165985   0.1529008886618768 -2.896283168524408e-07   0.1556772853412277 -2.19405129387193e-07
  0.1547968202986369 -2.209893188484258e-07   0.1488103594823653 -5.602532742203512e-07    0.151505530314984 -3.868386559130118e-07   0.1457420188824074 -8.030903665208717e-07
  0.1443181308865371 -9.161164485176471e-07   0.1387850244037302 -1.345033398889754e-06   0.1393327985764248 -1.217113002886754e-06   0.1422167094496169 -8.669036799595568e-07
  0.1785753255651251 1.504852904293644e-07   0.1529008886618765 -2.89628316852425e-07   0.8100918605382033    179.9999996350145   0.1619415448443832 -2.770649328491802e-07
  0.1676760060885221 1.791165041458927e-07   0.1589642498896285 -2.847688814437643e-07    0.163588355828726 -8.730529880650592e-08   0.1550266508684421 -7.379889656096084e-07
  0.1534991356262546 -9.109677949643182e-07   0.1713479282641773 -9.810631296356477e-08   0.1719753130349644 4.865153393385865e-08   0.1745964607558811 3.364350913241391e-07
  0.1647496851610606 -2.750798267308229e-07   0.1556772853412274 -2.194051293871787e-07   0.1619415448443834 -2.770649328491888e-07    0.795522645356214    179.9999992669329
  0.1742679057664238 2.555126459664942e-07   0.1757837615800979  1.6913928305604e-07   0.1723946319504668 1.059543983308172e-07   0.1742418016050792 1.94129831851462e-07
  0.1725970303728643 1.277035872376559e-08   0.1466978819673868 -1.549219649193312e-06   0.1472452567602653 -1.404040175903354e-06   0.1499258588967353 -1.032902439499216e-06
  0.1707766307802755 1.399004966181037e-07   0.1547968202986365 -2.209893188484115e-07   0.1676760060885218 1.791165041459054e-07    0.174267905766424 2.555126459664856e-07
  0.8154809795993307    179.9999997466831   0.1734211734419056 4.217803207941296e-07   0.1796254465268001 8.474406173447594e-07   0.1686427558684629 -9.149772256011093e-08
  0.1669742432850981 -2.894361268644217e-07   0.1518321698158411 -1.136937537749484e-06   0.1523889487118144 -9.964120682449552e-07   0.1550788779053284 -6.628824962390605e-07
  0.1618552855616557 -3.241816750033507e-07   0.1488103594823652 -5.602532742203471e-07   0.1589642498896287 -2.84768881443768e-07   0.1757837615800979 1.691392830560389e-07
  0.1734211734419051 4.217803207941525e-07   0.7956512892881852    179.9999994276714   0.1779925880411332 6.912430497645041e-07   0.1825216765001162 3.529253928464214e-07
  0.1807523707852466 1.125952620956432e-07   0.1439679418588616 -1.554837754636206e-06   0.1444994333016023 -1.41378393633163e-06   0.1470824477353506 -1.077064018679958e-06
  0.1665977867427501 -5.965017897321219e-08   0.1515055303149833 -3.868386559129789e-07   0.1635883558287257 -8.730529880649207e-08   0.1723946319504664 1.059543983308344e-07