! Touchstone file exported from Ansys Full-Wave Spice
! Project: 0000_PSI_S-parameter_Sweep
!  Design: unknown
! Creation time: Thu Apr 17 17:05:54 2025
! Notes: ! Touchstone(R) file created by SIwave 2025 R1
!      : ! Touchstone(R) file created on Thu Apr 17 17:05:54 2025

# HZ S RI R 0.1
! Modal data exported
! Port[1] = PORT_1_DIE1_VDDCR_AIE_Group_DIE1_GRP_1_1_VSS
! Port[2] = PORT_2_BGA1_VDDCR_AIE_Group_BGA1_GRP_1_1_VSS
! Port[3] = VDDCR_AIE_C10_2
! Port[4] = VDDCR_AIE_C32_2
! Port[5] = VDDCR_AIE_C90_1
! Port[6] = VDDCR_AIE_C91_1
! Port[7] = VDDCR_AIE_C126_2
! Port[8] = VDDCR_AIE_C127_1

0.0000000000000000e+00 -6.9702739532257552e-01 0.0000000000000000e+00 3.0084437101351102e-01 0.0000000000000000e+00 2.3567907375795788e-01 0.0000000000000000e+00 2.3309961500866497e-01 0.0000000000000000e+00 
                       2.3143499448397498e-01 0.0000000000000000e+00 2.3574563175471192e-01 0.0000000000000000e+00 2.3116364319856469e-01 0.0000000000000000e+00 2.2906006610499280e-01 0.0000000000000000e+00 
                       3.0084437101351102e-01 0.0000000000000000e+00 -6.8970206398031020e-01 0.0000000000000000e+00 2.3445626085869692e-01 0.0000000000000000e+00 2.3191746599151714e-01 0.0000000000000000e+00 
                       2.3017822319166448e-01 0.0000000000000000e+00 2.3445652242402762e-01 0.0000000000000000e+00 2.3001372419916474e-01 0.0000000000000000e+00 2.2783549630153066e-01 0.0000000000000000e+00 
                       2.3567907375795788e-01 0.0000000000000000e+00 2.3445626085869692e-01 0.0000000000000000e+00 -7.1391996055633178e-01 0.0000000000000000e+00 2.5201381665245270e-01 0.0000000000000000e+00 
                       2.4773122991548738e-01 0.0000000000000000e+00 2.5085633619590703e-01 0.0000000000000000e+00 2.4792659952464352e-01 0.0000000000000000e+00 2.4525664365098770e-01 0.0000000000000000e+00 
                       2.3309961500866497e-01 0.0000000000000000e+00 2.3191746599151714e-01 0.0000000000000000e+00 2.5201381665245270e-01 0.0000000000000000e+00 -7.2272262394783593e-01 0.0000000000000000e+00 
                       2.5114921932599887e-01 0.0000000000000000e+00 2.4930841584773156e-01 0.0000000000000000e+00 2.5481955659318589e-01 0.0000000000000000e+00 2.5041453452808793e-01 0.0000000000000000e+00 
                       2.3143499448397498e-01 0.0000000000000000e+00 2.3017822319166448e-01 0.0000000000000000e+00 2.4773122991548738e-01 0.0000000000000000e+00 2.5114921932599887e-01 0.0000000000000000e+00 
                       -7.1874921600130004e-01 0.0000000000000000e+00 2.5225766122914484e-01 0.0000000000000000e+00 2.5075449723509757e-01 0.0000000000000000e+00 2.5524339061973444e-01 0.0000000000000000e+00 
                       2.3574563175471192e-01 0.0000000000000000e+00 2.3445652242402762e-01 0.0000000000000000e+00 2.5085633619590703e-01 0.0000000000000000e+00 2.4930841584773156e-01 0.0000000000000000e+00 
                       2.5225766122914484e-01 0.0000000000000000e+00 -7.1719349199883453e-01 0.0000000000000000e+00 2.4712274155159308e-01 0.0000000000000000e+00 2.4744618299552013e-01 0.0000000000000000e+00 
                       2.3116364319856469e-01 0.0000000000000000e+00 2.3001372419916474e-01 0.0000000000000000e+00 2.4792659952464352e-01 0.0000000000000000e+00 2.5481955659318589e-01 0.0000000000000000e+00 
                       2.5075449723509757e-01 0.0000000000000000e+00 2.4712274155159308e-01 0.0000000000000000e+00 -7.1712952969616395e-01 0.0000000000000000e+00 2.5532876739371563e-01 0.0000000000000000e+00 
                       2.2906006610499280e-01 0.0000000000000000e+00 2.2783549630153066e-01 0.0000000000000000e+00 2.4525664365098770e-01 0.0000000000000000e+00 2.5041453452808793e-01 0.0000000000000000e+00 
                       2.5524339061973444e-01 0.0000000000000000e+00 2.4744618299552013e-01 0.0000000000000000e+00 2.5532876739371563e-01 0.0000000000000000e+00 -7.1058508159476741e-01 0.0000000000000000e+00 

1.0000000000000000e+00 -6.9703841130244171e-01 1.8033295068490154e-09 3.0083421256995757e-01 5.4744429903646285e-10 2.3568753704088047e-01 -9.1092366341924511e-10 2.3309449336240382e-01 -3.5800462703528455e-10 
                       2.3142861476012064e-01 -5.2671987137985354e-10 2.3574196554462468e-01 -2.6295521980581469e-10 2.3115808342495117e-01 1.4698038377808859e-10 2.2905323203745165e-01 -1.8613289302386079e-10 
                       3.0083421256995757e-01 5.4744429903646285e-10 -6.8971135053202592e-01 4.7841608977241284e-09 2.3446530425397910e-01 -1.4686820930644324e-09 2.3191298784283790e-01 -8.7376739610346643e-10 
                       2.3017248981197416e-01 -1.0153491970409359e-09 2.3445349948319494e-01 -7.9155304813394295e-10 2.3000880516552716e-01 -3.6907914595948768e-10 2.2782930443766766e-01 -6.5013611471215950e-10 
                       2.3568753704088047e-01 -9.1092366341924511e-10 2.3446530425397910e-01 -1.4686820930644324e-09 -7.1389042870470254e-01 7.1703567157179357e-09 2.5202714383447472e-01 4.7261065556296114e-11 
                       2.4774298548158091e-01 -1.4667922699204133e-09 2.5087128255530033e-01 -6.6630522181648382e-10 2.4793922059429024e-01 -9.8340978001865238e-10 2.4526771915855614e-01 -1.8072066316248856e-09 
                       2.3309449336240382e-01 -3.5800462703528455e-10 2.3191298784283790e-01 -8.7376739610346643e-10 2.5202714383447472e-01 4.7261065556296114e-11 -7.2272418990448273e-01 5.5971563603829156e-09 
                       2.5114649950135376e-01 -1.5495915638720752e-09 2.4930879928653929e-01 -8.7595345225428381e-10 2.5481765679802304e-01 -3.2267657569287596e-10 2.5041124025365913e-01 -1.6758086317004394e-09 
                       2.3142861476012064e-01 -5.2671987137985354e-10 2.3017248981197416e-01 -1.0153491970409359e-09 2.4774298548158091e-01 -1.4667922699204133e-09 2.5114649950135376e-01 -1.5495915638720752e-09 
                       -7.1875362554501576e-01 6.5686160601837290e-09 2.5225660142098649e-01 -2.5725700163300619e-10 2.5075126359712574e-01 -1.4061791129876185e-09 2.5523864438729876e-01 -3.5328622372219761e-10 
                       2.3574196554462468e-01 -2.6295521980581469e-10 2.3445349948319494e-01 -7.9155304813394295e-10 2.5087128255530033e-01 -6.6630522181648382e-10 2.4930879928653929e-01 -8.7595345225428381e-10 
                       2.5225660142098649e-01 -2.5725700163300619e-10 -7.1719154354868375e-01 5.1164318426703216e-09 2.4712260412830034e-01 -1.0078499274795280e-09 2.4744459786775774e-01 -1.2649039075488569e-09 
                       2.3115808342495117e-01 1.4698038377808859e-10 2.3000880516552716e-01 -3.6907914595948768e-10 2.4793922059429024e-01 -9.8340978001865238e-10 2.5481765679802304e-01 -3.2267657569287596e-10 
                       2.5075126359712574e-01 -1.4061791129876185e-09 2.4712260412830034e-01 -1.0078499274795280e-09 -7.1713206277501584e-01 5.3123615513549617e-09 2.5532490776924555e-01 -1.3754248841541221e-09 
                       2.2905323203745165e-01 -1.8613289302386079e-10 2.2782930443766766e-01 -6.5013611471215950e-10 2.4526771915855614e-01 -1.8072066316248856e-09 2.5041124025365913e-01 -1.6758086317004394e-09 
                       2.5523864438729876e-01 -3.5328622372219761e-10 2.4744459786775774e-01 -1.2649039075488569e-09 2.5532490776924555e-01 -1.3754248841541221e-09 -7.1059066538050952e-01 7.3062921374762066e-09 

1.1659100000000000e+00 -6.9703841130244570e-01 2.1025199053064644e-09 3.0083421256995346e-01 6.3827078266713663e-10 2.3568753704087714e-01 -1.0620550084107940e-09 2.3309449336240068e-01 -4.1740117450098653e-10 
                       2.3142861476011767e-01 -6.1410796525261103e-10 2.3574196554462160e-01 -3.0658212057864874e-10 2.3115808342494848e-01 1.7136589930299315e-10 2.2905323203744893e-01 -2.1701420128703177e-10 
                       3.0083421256995346e-01 6.3827078266713663e-10 -6.8971135053203025e-01 5.5779010322428669e-09 2.3446530425397558e-01 -1.7123511391201647e-09 2.3191298784283471e-01 -1.0187341445927554e-09 
                       2.3017248981197114e-01 -1.1838057823333356e-09 2.3445349948319177e-01 -9.2287961459688559e-10 2.3000880516552438e-01 -4.3031306701407875e-10 2.2782930443766486e-01 -7.5800019748687820e-10 
                       2.3568753704087714e-01 -1.0620550084107940e-09 2.3446530425397558e-01 -1.7123511391201647e-09 -7.1389042870470676e-01 8.3599905984080218e-09 2.5202714383447095e-01 5.5102148846931535e-11 
                       2.4774298548157742e-01 -1.7101477754225797e-09 2.5087128255529667e-01 -7.7685192106115913e-10 2.4793922059428686e-01 -1.1465672966491212e-09 2.4526771915855269e-01 -2.1070402838852924e-09 
                       2.3309449336240068e-01 -4.1740117450098653e-10 2.3191298784283471e-01 -1.0187341445927554e-09 2.5202714383447095e-01 5.5102148846931535e-11 -7.2272418990448706e-01 6.5257805699074269e-09 
                       2.5114649950134998e-01 -1.8066843001520841e-09 2.4930879928653552e-01 -1.0212828868584882e-09 2.5481765679801927e-01 -3.7621184698048807e-10 2.5041124025365524e-01 -1.9538420420209908e-09 
                       2.3142861476011767e-01 -6.1410796525261103e-10 2.3017248981197114e-01 -1.1838057823333356e-09 2.4774298548157742e-01 -1.7101477754225797e-09 2.5114649950134998e-01 -1.8066843001520841e-09 
                       -7.1875362554501954e-01 7.6584151507243031e-09 2.5225660142098288e-01 -2.9993851088268886e-10 2.5075126359712235e-01 -1.6394782896034904e-09 2.5523864438729527e-01 -4.1189994109178280e-10 
                       2.3574196554462160e-01 -3.0658212057864874e-10 2.3445349948319177e-01 -9.2287961459688559e-10 2.5087128255529667e-01 -7.7685192106115913e-10 2.4930879928653552e-01 -1.0212828868584882e-09 
                       2.5225660142098288e-01 -2.9993851088268886e-10 -7.1719154354868764e-01 5.9652990464932126e-09 2.4712260412829681e-01 -1.1750623082206998e-09 2.4744459786775402e-01 -1.4747641145717758e-09 
                       2.3115808342494848e-01 1.7136589930299315e-10 2.3000880516552438e-01 -4.3031306701407875e-10 2.4793922059428686e-01 -1.1465672966491212e-09 2.5481765679801927e-01 -3.7621184698048807e-10 
                       2.5075126359712235e-01 -1.6394782896034904e-09 2.4712260412829681e-01 -1.1750623082206998e-09 -7.1713206277501962e-01 6.1937354561668630e-09 2.5532490776924188e-01 -1.6036216267507075e-09 
                       2.2905323203744893e-01 -2.1701420128703177e-10 2.2782930443766486e-01 -7.5800019748687820e-10 2.4526771915855269e-01 -2.1070402838852924e-09 2.5041124025365524e-01 -1.9538420420209908e-09 
                       2.5523864438729527e-01 -4.1189994109178280e-10 2.4744459786775402e-01 -1.4747641145717758e-09 2.5532490776924188e-01 -1.6036216267507075e-09 -7.1059066538051385e-01 8.5184790659552207e-09 

1.3593599999999999e+00 -6.9703841130244926e-01 2.4513739984314513e-09 3.0083421256994991e-01 7.4417388234029769e-10 2.3568753704087592e-01 -1.2382731911036348e-09 2.3309449336239982e-01 -4.8665716980843413e-10 
                       2.3142861476011689e-01 -7.1600192435954776e-10 2.3574196554462068e-01 -3.5745080759622134e-10 2.3115808342494781e-01 1.9979925449137715e-10 2.2905323203744829e-01 -2.5302160946185114e-10 
                       3.0083421256994991e-01 7.4417388234029769e-10 -6.8971135053203381e-01 6.5033969579321463e-09 2.3446530425397430e-01 -1.9964676900284894e-09 2.3191298784283376e-01 -1.1877644475677819e-09 
                       2.3017248981197042e-01 -1.3802250844899528e-09 2.3445349948319091e-01 -1.0760055515119713e-09 2.3000880516552369e-01 -5.0171142785204467e-10 2.2782930443766422e-01 -8.8376902889750324e-10 
                       2.3568753704087592e-01 -1.2382731911036348e-09 2.3446530425397430e-01 -1.9964676900284894e-09 -7.1389042870470854e-01 9.7470961050620628e-09 2.5202714383446984e-01 6.4244802076366499e-11 
                       2.4774298548157625e-01 -1.9938987400400956e-09 2.5087128255529567e-01 -9.0574866632447896e-10 2.4793922059428566e-01 -1.3368079185648957e-09 2.4526771915855161e-01 -2.4566444067630569e-09 
                       2.3309449336239982e-01 -4.8665716980843413e-10 2.3191298784283376e-01 -1.1877644475677819e-09 2.5202714383446984e-01 6.4244802076366499e-11 -7.2272418990448828e-01 7.6085504700498409e-09 
                       2.5114649950134926e-01 -2.1064527882641964e-09 2.4930879928653479e-01 -1.1907360848577624e-09 2.5481765679801843e-01 -4.3863362993343843e-10 2.5041124025365424e-01 -2.2780272215857316e-09 
                       2.3142861476011689e-01 -7.1600192435954776e-10 2.3017248981197042e-01 -1.3802250844899528e-09 2.4774298548157625e-01 -1.9938987400400956e-09 2.5114649950134926e-01 -2.1064527882641964e-09 
                       -7.1875362554502065e-01 8.9291139275683135e-09 2.5225660142098222e-01 -3.4970487773794926e-10 2.5075126359712152e-01 -1.9115036390297179e-09 2.5523864438729427e-01 -4.8024316107746768e-10 
                       2.3574196554462068e-01 -3.5745080759622134e-10 2.3445349948319091e-01 -1.0760055515119713e-09 2.5087128255529567e-01 -9.0574866632447896e-10 2.4930879928653479e-01 -1.1907360848577624e-09 
                       2.5225660142098222e-01 -3.4970487773794926e-10 -7.1719154354868841e-01 6.9550727896497240e-09 2.4712260412829626e-01 -1.3700308774208325e-09 2.4744459786775336e-01 -1.7194597757684319e-09 
                       2.3115808342494781e-01 1.9979925449137715e-10 2.3000880516552369e-01 -5.0171142785204467e-10 2.4793922059428566e-01 -1.3368079185648957e-09 2.5481765679801843e-01 -4.3863362993343843e-10 
                       2.5075126359712152e-01 -1.9115036390297179e-09 2.4712260412829626e-01 -1.3700308774208325e-09 -7.1713206277502095e-01 7.2214117984507730e-09 2.5532490776924066e-01 -1.8696975705228480e-09 
                       2.2905323203744829e-01 -2.5302160946185114e-10 2.2782930443766422e-01 -8.8376902889750324e-10 2.4526771915855161e-01 -2.4566444067630569e-09 2.5041124025365424e-01 -2.2780272215857316e-09 
                       2.5523864438729427e-01 -4.8024316107746768e-10 2.4744459786775336e-01 -1.7194597757684319e-09 2.5532490776924066e-01 -1.8696975705228480e-09 -7.1059066538051541e-01 9.9318812799970649e-09 

1.4678000000000000e+00 -6.9703841130245014e-01 2.6469270501536823e-09 3.0083421256994897e-01 8.0353874212702595e-10 2.3568753704087625e-01 -1.3370537531673759e-09 2.3309449336240012e-01 -5.2547919156482351e-10 
                       2.3142861476011714e-01 -7.7311942721500371e-10 2.3574196554462090e-01 -3.8596567163389058e-10 2.3115808342494820e-01 2.1573780730591399e-10 2.2905323203744887e-01 -2.7320586038352094e-10 
                       3.0083421256994897e-01 8.0353874212702595e-10 -6.8971135053203469e-01 7.0221913656824028e-09 2.3446530425397469e-01 -2.1557315762028435e-09 2.3191298784283412e-01 -1.2825157840024313e-09 
                       2.3017248981197067e-01 -1.4903295514193886e-09 2.3445349948319108e-01 -1.1618415640541111e-09 2.3000880516552402e-01 -5.4173437044132503e-10 2.2782930443766480e-01 -9.5426978917798177e-10 
                       2.3568753704087625e-01 -1.3370537531673759e-09 2.3446530425397469e-01 -2.1557315762028435e-09 -7.1389042870470809e-01 1.0524649587334297e-08 2.5202714383447039e-01 6.9369792019932285e-11 
                       2.4774298548157681e-01 -2.1529576937904206e-09 2.5087128255529623e-01 -9.7800280458470706e-10 2.4793922059428614e-01 -1.4434488751115144e-09 2.4526771915855214e-01 -2.6526178938957947e-09 
                       2.3309449336240012e-01 -5.2547919156482351e-10 2.3191298784283412e-01 -1.2825157840024313e-09 2.5202714383447039e-01 6.9369792019932285e-11 -7.2272418990448839e-01 8.2155061057665096e-09 
                       2.5114649950134926e-01 -2.2744904974528774e-09 2.4930879928653507e-01 -1.2857244772203928e-09 2.5481765679801832e-01 -4.7362467780237842e-10 2.5041124025365452e-01 -2.4597519096085082e-09 
                       2.3142861476011714e-01 -7.7311942721500371e-10 2.3017248981197067e-01 -1.4903295514193886e-09 2.4774298548157681e-01 -2.1529576937904206e-09 2.5114649950134926e-01 -2.2744904974528774e-09 
                       -7.1875362554502120e-01 9.6414146531281910e-09 2.5225660142098216e-01 -3.7760182699670913e-10 2.5075126359712141e-01 -2.0639897020439822e-09 2.5523864438729427e-01 -5.1855351917741437e-10 
                       2.3574196554462090e-01 -3.8596567163389058e-10 2.3445349948319108e-01 -1.1618415640541111e-09 2.5087128255529623e-01 -9.7800280458470706e-10 2.4930879928653507e-01 -1.2857244772203928e-09 
                       2.5225660142098216e-01 -3.7760182699670913e-10 -7.1719154354868886e-01 7.5098986586691761e-09 2.4712260412829617e-01 -1.4793221235583182e-09 2.4744459786775350e-01 -1.8566259555038881e-09 
                       2.3115808342494820e-01 2.1573780730591399e-10 2.3000880516552402e-01 -5.4173437044132503e-10 2.4793922059428614e-01 -1.4434488751115144e-09 2.5481765679801832e-01 -4.7362467780237842e-10 
                       2.5075126359712141e-01 -2.0639897020439822e-09 2.4712260412829617e-01 -1.4793221235583182e-09 -7.1713206277502151e-01 7.7974842850704925e-09 2.5532490776924044e-01 -2.0188486449605472e-09 
                       2.2905323203744887e-01 -2.7320586038352094e-10 2.2782930443766480e-01 -9.5426978917798177e-10 2.4526771915855214e-01 -2.6526178938957947e-09 2.5041124025365452e-01 -2.4597519096085082e-09 
                       2.5523864438729427e-01 -5.1855351917741437e-10 2.4744459786775350e-01 -1.8566259555038881e-09 2.5532490776924044e-01 -2.0188486449605472e-09 -7.1059066538051563e-01 1.0724175599373454e-08 

1.5848899999999999e+00 -6.9703841130244770e-01 2.8580789021143946e-09 3.0083421256995146e-01 8.6763899510507002e-10 2.3568753704087880e-01 -1.4437138049149733e-09 2.3309449336240295e-01 -5.6739795334403365e-10 
                       2.3142861476012011e-01 -8.3479305695230737e-10 2.3574196554462346e-01 -4.1675509831677535e-10 2.3115808342495095e-01 2.3294774044270166e-10 2.2905323203745165e-01 -2.9500016082780700e-10 
                       3.0083421256995146e-01 8.6763899510507002e-10 -6.8971135053203214e-01 7.5823687651983673e-09 2.3446530425397727e-01 -2.3276995624774757e-09 2.3191298784283707e-01 -1.3848252084110804e-09 
                       2.3017248981197364e-01 -1.6092167888989989e-09 2.3445349948319377e-01 -1.2545245104580305e-09 2.3000880516552688e-01 -5.8494984763935276e-10 2.2782930443766766e-01 -1.0303942268495902e-09 
                       2.3568753704087880e-01 -1.4437138049149733e-09 2.3446530425397727e-01 -2.3276995624774757e-09 -7.1389042870470720e-01 1.1364226655164699e-08 2.5202714383447189e-01 7.4903590186626718e-11 
                       2.4774298548157853e-01 -2.3247044006764760e-09 2.5087128255529756e-01 -1.0560204830002162e-09 2.4793922059428747e-01 -1.5585963262511182e-09 2.4526771915855358e-01 -2.8642237183883079e-09 
                       2.3309449336240295e-01 -5.6739795334403365e-10 2.3191298784283707e-01 -1.3848252084110804e-09 2.5202714383447189e-01 7.4903590186626718e-11 -7.2272418990448706e-01 8.8708771440229618e-09 
                       2.5114649950135071e-01 -2.4559321736700293e-09 2.4930879928653643e-01 -1.3882898669418761e-09 2.5481765679801965e-01 -5.1140687804821001e-10 2.5041124025365569e-01 -2.6559723422936192e-09 
                       2.3142861476012011e-01 -8.3479305695230737e-10 2.3017248981197364e-01 -1.6092167888989989e-09 2.4774298548157853e-01 -2.3247044006764760e-09 2.5114649950135071e-01 -2.4559321736700293e-09 
                       -7.1875362554501987e-01 1.0410533907643783e-08 2.5225660142098366e-01 -4.0772404931653536e-10 2.5075126359712280e-01 -2.2286392143846845e-09 2.5523864438729554e-01 -5.5991980311586426e-10 
                       2.3574196554462346e-01 -4.1675509831677535e-10 2.3445349948319377e-01 -1.2545245104580305e-09 2.5087128255529756e-01 -1.0560204830002162e-09 2.4930879928653643e-01 -1.3882898669418761e-09 
                       2.5225660142098366e-01 -4.0772404931653536e-10 -7.1719154354868764e-01 8.1089816631231459e-09 2.4712260412829756e-01 -1.5973312715644504e-09 2.4744459786775497e-01 -2.0047335540372757e-09 
                       2.3115808342495095e-01 2.3294774044270166e-10 2.3000880516552688e-01 -5.8494984763935276e-10 2.4793922059428747e-01 -1.5585963262511182e-09 2.5481765679801965e-01 -5.1140687804821001e-10 
                       2.5075126359712280e-01 -2.2286392143846845e-09 2.4712260412829756e-01 -1.5973312715644504e-09 -7.1713206277502062e-01 8.4195086991249232e-09 2.5532490776924160e-01 -2.1798971446439441e-09 
                       2.2905323203745165e-01 -2.9500016082780700e-10 2.2782930443766766e-01 -1.0303942268495902e-09 2.4526771915855358e-01 -2.8642237183883079e-09 2.5041124025365569e-01 -2.6559723422936192e-09 
                       2.5523864438729554e-01 -5.5991980311586426e-10 2.4744459786775497e-01 -2.0047335540372757e-09 2.5532490776924160e-01 -2.1798971446439441e-09 -7.1059066538051507e-01 1.1579669345760707e-08 

1.7113300000000000e+00 -6.9703841130245126e-01 3.0860918849793669e-09 3.0083421256994775e-01 9.3685785229244064e-10 2.3568753704087708e-01 -1.5588909929283925e-09 2.3309449336240154e-01 -6.1266405860053502e-10 
                       2.3142861476011889e-01 -9.0139151748583879e-10 2.3574196554462196e-01 -4.5000315606118090e-10 2.3115808342495003e-01 2.5153194010741459e-10 2.2905323203745073e-01 -3.1853480384578933e-10 
                       3.0083421256994775e-01 9.3685785229244064e-10 -6.8971135053203581e-01 8.1872780691234820e-09 2.3446530425397558e-01 -2.5133997263365149e-09 2.3191298784283557e-01 -1.4953043581804239e-09 
                       2.3017248981197241e-01 -1.7375975413671166e-09 2.3445349948319216e-01 -1.3546084776258229e-09 2.3000880516552599e-01 -6.3161621491332484e-10 2.2782930443766675e-01 -1.1125974372184553e-09 
                       2.3568753704087708e-01 -1.5588909929283925e-09 2.3446530425397558e-01 -2.5133997263365149e-09 -7.1389042870470920e-01 1.2270846558307181e-08 2.5202714383447039e-01 8.0879279407838700e-11 
                       2.4774298548157705e-01 -2.5101656152908312e-09 2.5087128255529623e-01 -1.1402681153601799e-09 2.4793922059428630e-01 -1.6829386588171750e-09 2.4526771915855250e-01 -3.0927269248853769e-09 
                       2.3309449336240154e-01 -6.1266405860053502e-10 2.3191298784283557e-01 -1.4953043581804239e-09 2.5202714383447039e-01 8.0879279407838700e-11 -7.2272418990448872e-01 9.5785815964357184e-09 
                       2.5114649950134948e-01 -2.6518625310910710e-09 2.4930879928653524e-01 -1.4990454241079650e-09 2.5481765679801854e-01 -5.5220610367048089e-10 2.5041124025365452e-01 -2.8678615854504391e-09 
                       2.3142861476011889e-01 -9.0139151748583879e-10 2.3017248981197241e-01 -1.7375975413671166e-09 2.4774298548157705e-01 -2.5101656152908312e-09 2.5114649950134948e-01 -2.6518625310910710e-09 
                       -7.1875362554502142e-01 1.1241069722266596e-08 2.5225660142098227e-01 -4.4025162449801108e-10 2.5075126359712163e-01 -2.4064365014525767e-09 2.5523864438729443e-01 -6.0458931324939034e-10 
                       2.3574196554462196e-01 -4.5000315606118090e-10 2.3445349948319216e-01 -1.3546084776258229e-09 2.5087128255529623e-01 -1.1402681153601799e-09 2.4930879928653524e-01 -1.4990454241079650e-09 
                       2.5225660142098227e-01 -4.4025162449801108e-10 -7.1719154354868930e-01 8.7559033084928550e-09 2.4712260412829640e-01 -1.7247638171284278e-09 2.4744459786775366e-01 -2.1646680043933290e-09 
                       2.3115808342495003e-01 2.5153194010741459e-10 2.3000880516552599e-01 -6.3161621491332484e-10 2.4793922059428630e-01 -1.6829386588171750e-09 2.5481765679801854e-01 -5.5220610367048089e-10 
                       2.5075126359712163e-01 -2.4064365014525767e-09 2.4712260412829640e-01 -1.7247638171284278e-09 -7.1713206277502195e-01 9.0912036938561778e-09 2.5532490776924033e-01 -2.3538058669353270e-09 
                       2.2905323203745073e-01 -3.1853480384578933e-10 2.2782930443766675e-01 -1.1125974372184553e-09 2.4526771915855250e-01 -3.0927269248853769e-09 2.5041124025365452e-01 -2.8678615854504391e-09 
                       2.5523864438729443e-01 -6.0458931324939034e-10 2.4744459786775366e-01 -2.1646680043933290e-09 2.5532490776924033e-01 -2.3538058669353270e-09 -7.1059066538051663e-01 1.2503476923643192e-08 

1.8478500000000000e+00 -6.9703841130245037e-01 3.3322824292353136e-09 3.0083421256994869e-01 1.0115949479775833e-09 2.3568753704087989e-01 -1.6832502914507505e-09 2.3309449336240437e-01 -6.6153885007661245e-10 
                       2.3142861476012172e-01 -9.7329931433884187e-10 2.3574196554462465e-01 -4.8590180292426410e-10 2.3115808342495289e-01 2.7159770215290367e-10 2.2905323203745392e-01 -3.4394566638456330e-10 
                       3.0083421256994869e-01 1.0115949479775833e-09 -6.8971135053203492e-01 8.8404117148585781e-09 2.3446530425397841e-01 -2.7139042056752874e-09 2.3191298784283843e-01 -1.6145910828972329e-09 
                       2.3017248981197524e-01 -1.8762130137607945e-09 2.3445349948319480e-01 -1.4626713000016369e-09 2.3000880516552888e-01 -6.8200289986869088e-10 2.2782930443767002e-01 -1.2013540195819954e-09 
                       2.3568753704087989e-01 -1.6832502914507505e-09 2.3446530425397841e-01 -2.7139042056752874e-09 -7.1389042870470665e-01 1.3249743657106707e-08 2.5202714383447311e-01 8.7331359986584585e-11 
                       2.4774298548157986e-01 -2.7104120959775164e-09 2.5087128255529884e-01 -1.2312321041369229e-09 2.4793922059428886e-01 -1.8171937620115430e-09 2.4526771915855522e-01 -3.3394467742449602e-09 
                       2.3309449336240437e-01 -6.6153885007661245e-10 2.3191298784283843e-01 -1.6145910828972329e-09 2.5202714383447311e-01 8.7331359986584585e-11 -7.2272418990448684e-01 1.0342705380526988e-08 
                       2.5114649950135193e-01 -2.8634127713095025e-09 2.4930879928653760e-01 -1.6186305867534246e-09 2.5481765679802049e-01 -5.9625791039634541e-10 2.5041124025365691e-01 -3.0966429800878096e-09 
                       2.3142861476012172e-01 -9.7329931433884187e-10 2.3017248981197524e-01 -1.8762130137607945e-09 2.4774298548157986e-01 -2.7104120959775164e-09 2.5114649950135193e-01 -2.8634127713095025e-09 
                       -7.1875362554501931e-01 1.2137817186827085e-08 2.5225660142098461e-01 -4.7537235047124532e-10 2.5075126359712396e-01 -2.5984080739391584e-09 2.5523864438729682e-01 -6.5281994851292759e-10 
                       2.3574196554462465e-01 -4.8590180292426410e-10 2.3445349948319480e-01 -1.4626713000016369e-09 2.5087128255529884e-01 -1.2312321041369229e-09 2.4930879928653760e-01 -1.6186305867534246e-09 
                       2.5225660142098461e-01 -4.7537235047124532e-10 -7.1719154354868730e-01 9.4543985804745401e-09 2.4712260412829870e-01 -1.8623554884977421e-09 2.4744459786775630e-01 -2.3373526855707470e-09 
                       2.3115808342495289e-01 2.7159770215290367e-10 2.3000880516552888e-01 -6.8200289986869088e-10 2.4793922059428886e-01 -1.8171937620115430e-09 2.5481765679802049e-01 -5.9625791039634541e-10 
                       2.5075126359712396e-01 -2.5984080739391584e-09 2.4712260412829870e-01 -1.8623554884977421e-09 -7.1713206277502040e-01 9.8164472926625311e-09 2.5532490776924271e-01 -2.5415788721862557e-09 
                       2.2905323203745392e-01 -3.4394566638456330e-10 2.2782930443767002e-01 -1.2013540195819954e-09 2.4526771915855522e-01 -3.3394467742449602e-09 2.5041124025365691e-01 -3.0966429800878096e-09 
                       2.5523864438729682e-01 -6.5281994851292759e-10 2.4744459786775630e-01 -2.3373526855707470e-09 2.5532490776924271e-01 -2.5415788721862557e-09 -7.1059066538051485e-01 1.3500931926234959e-08 

1.9952600000000000e+00 -6.9703841130245547e-01 3.5981112318382902e-09 3.0083421256994342e-01 1.0922937121008865e-09 2.3568753704087653e-01 -1.8175295486771081e-09 2.3309449336240151e-01 -7.1431231214663868e-10 
                       2.3142861476011886e-01 -1.0509430905775813e-09 2.3574196554462168e-01 -5.2466403187576076e-10 2.3115808342495039e-01 2.9326408052598415e-10 2.2905323203745120e-01 -3.7138351614657827e-10 
                       3.0083421256994342e-01 1.0922937121008865e-09 -6.8971135053204036e-01 9.5456448727962341e-09 2.3446530425397497e-01 -2.9304026330140419e-09 2.3191298784283551e-01 -1.7433931347567850e-09 
                       2.3017248981197241e-01 -2.0258856388948870e-09 2.3445349948319186e-01 -1.5793541348275298e-09 2.3000880516552621e-01 -7.3640885677594055e-10 2.2782930443766722e-01 -1.2971905842525726e-09 
                       2.3568753704087653e-01 -1.8175295486771081e-09 2.3446530425397497e-01 -2.9304026330140419e-09 -7.1389042870471053e-01 1.4306725940599835e-08 2.5202714383446989e-01 9.4298113656447293e-11 
                       2.4774298548157658e-01 -2.9266319444877044e-09 2.5087128255529584e-01 -1.3294521568839005e-09 2.4793922059428569e-01 -1.9621581976844183e-09 2.4526771915855178e-01 -3.6058471038165057e-09 
                       2.3309449336240151e-01 -7.1431231214663868e-10 2.3191298784283551e-01 -1.7433931347567850e-09 2.5202714383446989e-01 9.4298113656447293e-11 -7.2272418990449061e-01 1.1167782199620792e-08 
                       2.5114649950134849e-01 -3.0918380637388597e-09 2.4930879928653432e-01 -1.7477548851463837e-09 2.5481765679801716e-01 -6.4382366441935607e-10 2.5041124025365308e-01 -3.3436739304878561e-09 
                       2.3142861476011886e-01 -1.0509430905775813e-09 2.3017248981197241e-01 -2.0258856388948870e-09 2.4774298548157658e-01 -2.9266319444877044e-09 2.5114649950134849e-01 -3.0918380637388597e-09 
                       -7.1875362554502331e-01 1.3106096880254091e-08 2.5225660142098139e-01 -5.1329460507853225e-10 2.5075126359712069e-01 -2.8056929369848203e-09 2.5523864438729316e-01 -7.0489787075114094e-10 
                       2.3574196554462168e-01 -5.2466403187576076e-10 2.3445349948319186e-01 -1.5793541348275298e-09 2.5087128255529584e-01 -1.3294521568839005e-09 2.4930879928653432e-01 -1.7477548851463837e-09 