! Touchstone data
! Created: 18-Apr-2025 by IdEM 2023 (2023.0.0)
!
!*********************************************************
! COMMENTS
!*********************************************************
!
!  Touchstone file exported from Ansys Full-Wave Spice
!  Project: 0000_PSI_S-parameter_Sweep
!   Design: unknown
!  Creation time: Thu Apr 17 17:05:54 2025
!  Notes: ! Touchstone(R) file created by SIwave 2025 R1
!       : ! Touchstone(R) file created on Thu Apr 17 17:05:54 2025
! 
!  Modal data exported
!  Port[1] = PORT_1_DIE1_VDDCR_AIE_Group_DIE1_GRP_1_1_VSS
!  Port[2] = PORT_2_BGA1_VDDCR_AIE_Group_BGA1_GRP_1_1_VSS
!  Port[3] = VDDCR_AIE_C10_2
!  Port[4] = VDDCR_AIE_C32_2
!  Port[5] = VDDCR_AIE_C90_1
!  Port[6] = VDDCR_AIE_C91_1
!  Port[7] = VDDCR_AIE_C126_2
!  Port[8] = VDDCR_AIE_C127_1
!
!*********************************************************
!
!
!---------------------------
! Options Used in IdEM Flow
!---------------------------
!
! Fitting Options !
!
! Bandwidth: 1.0000e+09 Hz
! Order: [2 2 4] 
! SplitType: none 
! tol: 1.0000e-03 
! DC Point: enforced 
!
!---------------------------
!
! Passivity Options !
!
! Alg: SOC+HAM 
!    Max SOC it: 200 
!    Max HAM it: 50 
! Freq sampling: adaptive
! DC Point: enforced
! Optimization method: Model based
!
!---------------------------
!

# Hz S MA R 0.1

!
                   0   0.6970273954613294                  180   0.3008443708747578                    0   0.2356790736192049                    0   0.2330996148699117                    0
  0.2314349943452218                    0   0.2357456316159591                    0   0.2311636430598114                    0   0.2290600659662396                    0
  0.3008443708747587                    0   0.6897020641190637                  180   0.2344562607199441                    0   0.2319174658527642                    0
  0.2301782230529114                    0   0.2344565222852746                    0   0.2300137240604118                    0   0.2278354961627774                    0
  0.2356790736192049                    0   0.2344562607199438                    0   0.7139199606950846                  180   0.2520138165136993                    0
  0.2477312297767341                    0   0.2508563360571532                    0   0.2479265993858901                    0   0.2452566435122354                    0
   0.233099614869912                    0   0.2319174658527641                    0   0.2520138165136997                    0   0.7227226240865883                  180
  0.2511492191872453                    0   0.2493084157089783                    0   0.2548195564544329                    0   0.2504145343893348                    0
  0.2314349943452222                    0   0.2301782230529114                    0   0.2477312297767343                    0   0.2511492191872455                    0
  0.7187492161400517                  180   0.2522576610903916                    0    0.250754497096344                    0   0.2552433904809809                    0
  0.2357456316159591                    0   0.2344565222852743                    0   0.2508563360571534                    0    0.249308415708978                    0
  0.2522576610903915                    0   0.7171934921375867                  180   0.2471227414128403                    0   0.2474461828567672                    0
  0.2311636430598116                    0   0.2300137240604116                    0   0.2479265993858905                    0   0.2548195564544327                    0
   0.250754497096344                    0   0.2471227414128401                    0   0.7171295298349167                  180   0.2553287672549621                    0
  0.2290600659662399                    0   0.2278354961627776                    0   0.2452566435122354                    0   0.2504145343893349                    0
  0.2552433904809808                    0   0.2474461828567674                    0   0.2553287672549622                    0   0.7105850817335202                  180

!
                   1   0.6970273954613292    179.9999996352211   0.3008443708747579 7.057004536050409e-07   0.2356790736192049 -2.43590315731605e-07   0.2330996148699116 -3.169479413583075e-07
  0.2314349943452218 -4.02748571244161e-07   0.2357456316159591 -2.018046317580101e-07   0.2311636430598114 -3.417788347216925e-07   0.2290600659662396 -4.911776784058213e-07
  0.3008443708747588 7.05700453605036e-07   0.6897020641190637    179.9999994598861   0.2344562607199441 -3.33731944489508e-07   0.2319174658527642 -4.05413070088865e-07
  0.2301782230529114 -4.896734514105164e-07   0.2344565222852746 -2.92433673007553e-07   0.2300137240604117 -4.298599782869418e-07   0.2278354961627774 -5.77947001835458e-07
  0.2356790736192049 -2.43590315731605e-07   0.2344562607199437 -3.337319444895071e-07   0.7139199606950846    179.9999994703363   0.2520138165136993 1.390350360489519e-08
  0.2477312297767341 -3.018866419800762e-07   0.2508563360571532 -1.49117549773319e-07   0.2479265993858902 -1.761450873363836e-07   0.2452566435122354 -3.758008931000795e-07
  0.2330996148699119 -3.169479413583082e-07   0.2319174658527641 -4.054130700888648e-07   0.2520138165136997 1.390350360489399e-08   0.7227226240865883    179.9999995634685
  0.2511492191872453 -2.351183722644398e-07   0.2493084157089783 -1.629634763840223e-07   0.2548195564544329 3.010534057646926e-08   0.2504145343893348 -2.440835736779658e-07
  0.2314349943452222 -4.027485712441618e-07   0.2301782230529114 -4.896734514105163e-07   0.2477312297767343 -3.018866419800765e-07   0.2511492191872455 -2.351183722644405e-07
  0.7187492161400517    179.9999994773571   0.2522576610903916 -1.380522920849498e-08    0.250754497096344 -1.811825182925747e-07    0.255243390480981 4.288661006343055e-08
  0.2357456316159591 -2.018046317580098e-07   0.2344565222852743 -2.924336730075523e-07   0.2508563360571534 -1.491175497733194e-07    0.249308415708978 -1.629634763840214e-07
  0.2522576610903915 -1.380522920849498e-08   0.7171934921375867    179.9999995830719   0.2471227414128403 -1.754538186615265e-07   0.2474461828567672 -2.424620346337202e-07
  0.2311636430598116 -3.417788347216932e-07   0.2300137240604116 -4.298599782869414e-07   0.2479265993858905 -1.761450873363845e-07   0.2548195564544327 3.010534057647011e-08
   0.250754497096344 -1.811825182925747e-07   0.2471227414128401 -1.75453818661526e-07   0.7171295298349167    179.9999995498877   0.2553287672549621 -8.664128030877539e-08
  0.2290600659662399 -4.911776784058218e-07   0.2278354961627775 -5.779470018354582e-07   0.2452566435122354 -3.758008931000798e-07   0.2504145343893349 -2.44083573677966e-07
  0.2552433904809809 4.28866100634308e-08   0.2474461828567674 -2.424620346337208e-07   0.2553287672549622 -8.664128030877589e-08   0.7105850817335202    179.9999993434215

!
             1.16591   0.6970273954613292    179.9999995747007    0.300844370874758 8.227832158626531e-07   0.2356790736192049 -2.840043850146356e-07   0.2330996148699116 -3.695327743090643e-07
  0.2314349943452218 -4.695685866992796e-07   0.2357456316159591 -2.352860382129815e-07   0.2311636430598114 -3.984833611903685e-07   0.2290600659662396 -5.726689670301312e-07
  0.3008443708747588 8.227832158626473e-07   0.6897020641190637    179.9999993702759   0.2344562607199441 -3.891014113997623e-07   0.2319174658527642 -4.726751525473084e-07
  0.2301782230529114 -5.709151737340351e-07   0.2344565222852746 -3.40951343696236e-07   0.2300137240604117 -5.011780472845284e-07   0.2278354961627774 -6.738341889099788e-07
  0.2356790736192049 -2.840043850146356e-07   0.2344562607199437 -3.891014113997613e-07   0.7139199606950846    179.9999993824598   0.2520138165136993 1.621023388798329e-08
  0.2477312297767341 -3.519726547509906e-07   0.2508563360571532 -1.738576424562104e-07   0.2479265993858902 -2.053693187763631e-07   0.2452566435122354 -4.381500192743137e-07
  0.2330996148699119 -3.695327743090651e-07   0.2319174658527641 -4.726751525473083e-07   0.2520138165136997 1.62102338879819e-08   0.7227226240865883    179.9999994910435
  0.2511492191872453 -2.74126861406833e-07   0.2493084157089783 -1.900007467508954e-07   0.2548195564544329 3.510011763151135e-08   0.2504145343893348 -2.845794793868771e-07
  0.2314349943452222 -4.695685866992806e-07   0.2301782230529114 -5.70915173734035e-07   0.2477312297767343 -3.51972654750991e-07   0.2511492191872455 -2.741268614068337e-07
  0.7187492161400517    179.9999993906454   0.2522576610903916 -1.609565478647647e-08    0.250754497096344 -2.112425099024958e-07    0.255243390480981 5.000192753905426e-08
  0.2357456316159591 -2.352860382129812e-07   0.2344565222852743 -3.409513436962352e-07   0.2508563360571534 -1.738576424562108e-07    0.249308415708978 -1.900007467508944e-07
  0.2522576610903915 -1.609565478647638e-08   0.7171934921375867    179.9999995138994   0.2471227414128403 -2.045633617156603e-07   0.2474461828567672 -2.826889107998007e-07
  0.2311636430598116 -3.984833611903691e-07   0.2300137240604116 -5.011780472845278e-07   0.2479265993858905 -2.053693187763641e-07   0.2548195564544327 3.51001176315124e-08
   0.250754497096344 -2.112425099024958e-07   0.2471227414128401 -2.045633617156597e-07   0.7171295298349167    179.9999994752095   0.2553287672549621 -1.010159351248043e-07
  0.2290600659662399 -5.726689670301317e-07   0.2278354961627776 -6.738341889099788e-07   0.2452566435122354 -4.381500192743138e-07   0.2504145343893349 -2.845794793868773e-07
  0.2552433904809809 5.000192753905455e-08   0.2474461828567674 -2.826889107998015e-07   0.2553287672549622 -1.010159351248049e-07   0.7105850817335203    179.9999992344886

!
             1.35936   0.6970273954613292    179.9999995041342    0.300844370874758 9.593009686125482e-07   0.2356790736192049 -3.311269315929146e-07   0.2330996148699116 -4.308463535648289e-07
  0.2314349943452218 -5.474802978064626e-07   0.2357456316159591 -2.743251442265686e-07   0.2311636430598114 -4.646004767672799e-07   0.2290600659662397 -6.676872889177374e-07
  0.3008443708747588 9.593009686125412e-07   0.6897020641190638    179.9999992657908   0.2344562607199441 -4.536618560612575e-07   0.2319174658527642 -5.511023109559993e-07
  0.2301782230529114 -6.656425029093994e-07   0.2344565222852746 -3.97522637739547e-07   0.2300137240604117 -5.843344600841371e-07   0.2278354961627774 -7.85638036415048e-07
  0.2356790736192049 -3.311269315929146e-07   0.2344562607199437 -4.536618560612564e-07   0.7139199606950846    179.9999992799964   0.2520138165136993 1.889986666035033e-08
  0.2477312297767341 -4.103726256420363e-07   0.2508563360571532 -2.02704432459859e-07   0.2479265993858902 -2.394445859215865e-07   0.2452566435122354 -5.108487020445241e-07
  0.2330996148699119 -4.308463535648298e-07   0.2319174658527641 -5.511023109559993e-07   0.2520138165136997 1.88998666603487e-08   0.7227226240865883    179.9999994065965
  0.2511492191872453 -3.196105105213889e-07   0.2493084157089783 -2.215260312573845e-07   0.2548195564544329 4.092399576602932e-08   0.2504145343893348 -3.317974467148796e-07
  0.2314349943452222 -5.474802978064637e-07   0.2301782230529114 -6.656425029093992e-07   0.2477312297767343 -4.103726256420368e-07   0.2511492191872455 -3.196105105213897e-07
  0.7187492161400517    179.9999992895401   0.2522576610903916 -1.876627637685975e-08    0.250754497096344 -2.462922680661944e-07    0.255243390480981 5.829834225582483e-08
  0.2357456316159591 -2.743251442265682e-07   0.2344565222852743 -3.975226377395462e-07   0.2508563360571534 -2.027044324598594e-07    0.249308415708978 -2.215260312573833e-07
  0.2522576610903915 -1.876627637685966e-08   0.7171934921375867    179.9999994332447   0.2471227414128403 -2.385049029357326e-07   0.2474461828567672 -3.295931913996939e-07
  0.2311636430598116 -4.646004767672807e-07   0.2300137240604116 -5.843344600841367e-07   0.2479265993858905 -2.394445859215877e-07   0.2548195564544327 4.092399576603056e-08
   0.250754497096344 -2.462922680661944e-07   0.2471227414128401 -2.385049029357319e-07   0.7171295298349167    179.9999993881353   0.2553287672549621 -1.177766908005369e-07
    0.22906006596624 -6.676872889177379e-07   0.2278354961627776 -7.856380364150481e-07   0.2452566435122354 -5.108487020445244e-07   0.2504145343893349 -3.317974467148797e-07
  0.2552433904809809 5.829834225582519e-08   0.2474461828567674 -3.295931913996948e-07   0.2553287672549622 -1.177766908005376e-07   0.7105850817335203    179.9999991074735

!
              1.4678   0.6970273954613292    179.9999994645776    0.300844370874758 1.035827125801479e-06   0.2356790736192049 -3.575418654308498e-07   0.2330996148699116 -4.652161883257237e-07
  0.2314349943452218 -5.911543528721793e-07   0.2357456316159591 -2.962088384944071e-07   0.2311636430598114 -5.016629736045002e-07   0.2290600659662397 -7.209505963640645e-07
  0.3008443708747588 1.035827125801471e-06   0.6897020641190638    179.9999992072209   0.2344562607199441 -4.898517481216998e-07   0.2319174658527642 -5.950653042764357e-07
  0.2301782230529114 -7.187426919803557e-07   0.2344565222852746 -4.292341452404862e-07   0.2300137240604118 -6.309484761295732e-07   0.2278354961627774 -8.483106092940851e-07
  0.2356790736192049 -3.575418654308498e-07   0.2344562607199437 -4.898517481216985e-07   0.7139199606950847    179.9999992225596   0.2520138165136993 2.040756259126519e-08
  0.2477312297767341 -4.431092130983558e-07   0.2508563360571532 -2.188747395572777e-07   0.2479265993858902 -2.585457591923439e-07   0.2452566435122354 -5.516005508922967e-07
  0.2330996148699119 -4.652161883257248e-07   0.2319174658527641 -5.950653042764356e-07   0.2520138165136997 2.040756259126336e-08   0.7227226240865883     179.999999359259
  0.2511492191872453 -3.451067468097448e-07   0.2493084157089783 -2.391977906364679e-07   0.2548195564544329 4.418861889814159e-08   0.2504145343893348 -3.582658694445183e-07
  0.2314349943452222 -5.911543528721806e-07   0.2301782230529114 -7.187426919803559e-07   0.2477312297767343 -4.431092130983564e-07   0.2511492191872455 -3.451067468097456e-07
  0.7187492161400518    179.9999992328647   0.2522576610903916 -2.0263315432229e-08    0.250754497096344 -2.659397003498412e-07    0.255243390480981 6.294896625110325e-08
  0.2357456316159591 -2.962088384944068e-07   0.2344565222852743 -4.292341452404852e-07   0.2508563360571534 -2.188747395572782e-07    0.249308415708978 -2.391977906364666e-07
  0.2522576610903915 -2.026331543222891e-08   0.7171934921375867     179.999999388033   0.2471227414128403 -2.575311150313885e-07   0.2474461828567672 -3.558857744353746e-07
  0.2311636430598116 -5.016629736045011e-07   0.2300137240604116 -6.309484761295726e-07   0.2479265993858905 -2.585457591923452e-07   0.2548195564544327 4.418861889814302e-08
   0.250754497096344 -2.659397003498412e-07   0.2471227414128401 -2.575311150313878e-07   0.7171295298349167    179.9999993393251   0.2553287672549621 -1.271720712372205e-07
    0.22906006596624 -7.209505963640653e-07   0.2278354961627776 -8.483106092940853e-07   0.2452566435122354 -5.516005508922969e-07   0.2504145343893349 -3.582658694445184e-07
  0.2552433904809809 6.294896625110374e-08   0.2474461828567674 -3.558857744353754e-07   0.2553287672549622 -1.271720712372213e-07   0.7105850817335203     179.999999036274

!
             1.58489   0.6970273954613292    179.9999994218656    0.300844370874758 1.118457591914093e-06   0.2356790736192049 -3.860638554998635e-07   0.2330996148699116 -5.023276227793679e-07
  0.2314349943452218 -6.383121830791581e-07   0.2357456316159591 -3.198381428269525e-07   0.2311636430598114 -5.416818573620633e-07   0.2290600659662397 -7.784625907286023e-07
  0.3008443708747588 1.118457591914085e-06   0.6897020641190638    179.9999991439789   0.2344562607199441 -5.289284215019762e-07   0.2319174658527642 -6.42535120653141e-07
  0.2301782230529114 -7.760785564060132e-07   0.2344565222852746 -4.634752040129405e-07   0.2300137240604118 -6.812807809871911e-07   0.2278354961627774 -9.15982423738999e-07
  0.2356790736192049 -3.860638554998635e-07   0.2344562607199437 -5.28928421501975e-07   0.7139199606950847    179.9999991605413   0.2520138165136993 2.203552382836244e-08
  0.2477312297767341 -4.784571200078028e-07   0.2508563360571532 -2.363349134602357e-07   0.2479265993858902 -2.79170587468561e-07   0.2452566435122354 -5.956030774653851e-07
  0.2330996148699119 -5.023276227793691e-07   0.2319174658527641 -6.425351206531409e-07   0.2520138165136997 2.203552382836052e-08   0.7227226240865883    179.9999993081455
  0.2511492191872453 -3.72636757018188e-07   0.2493084157089783 -2.582791840862731e-07   0.2548195564544329 4.771365322624041e-08   0.2504145343893348 -3.868456150864713e-07
  0.2314349943452222 -6.383121830791595e-07   0.2301782230529114 -7.760785564060132e-07   0.2477312297767343 -4.784571200078034e-07   0.2511492191872455 -3.726367570181889e-07
  0.7187492161400518    179.9999991716684   0.2522576610903916 -2.187976972025152e-08    0.250754497096344 -2.871543614167188e-07    0.255243390480981 6.797055942343036e-08
  0.2357456316159591 -3.198381428269522e-07   0.2344565222852743 -4.634752040129395e-07   0.2508563360571534 -2.363349134602361e-07    0.249308415708978 -2.582791840862717e-07
  0.2522576610903915 -2.187976972025143e-08   0.7171934921375867    179.9999993392149   0.2471227414128403 -2.780750026584667e-07   0.2474461828567672 -3.842756540706368e-07
  0.2311636430598116 -5.416818573620642e-07   0.2300137240604116 -6.812807809871905e-07   0.2479265993858905 -2.791705874685625e-07   0.2548195564544327 4.771365322624186e-08
   0.250754497096344 -2.871543614167188e-07   0.2471227414128401 -2.780750026584658e-07   0.7171295298349168    179.9999992866214   0.2553287672549621 -1.37316898748575e-07
    0.22906006596624 -7.784625907286029e-07   0.2278354961627776 -9.15982423738999e-07   0.2452566435122354 -5.956030774653854e-07   0.2504145343893349 -3.868456150864713e-07
  0.2552433904809809 6.797055942343076e-08   0.2474461828567674 -3.842756540706378e-07   0.2553287672549622 -1.373168987485759e-07   0.7105850817335203    179.9999989593953

!
             1.71133   0.6970273954613292     179.999999375743    0.300844370874758 1.207686357267914e-06   0.2356790736192049 -4.168634150209676e-07   0.2330996148699116 -5.424025204847124e-07
  0.2314349943452218 -6.892357124272698e-07   0.2357456316159591 -3.453543204664354e-07   0.2311636430598114 -5.84896373224274e-07   0.2290600659662396 -8.405670963862343e-07
  0.3008443708747588 1.207686357267906e-06   0.6897020641190635    179.9999990756869   0.2344562607199441 -5.711254885632296e-07   0.2319174658527642 -6.937955492351772e-07
  0.2301782230529113 -8.379928676023589e-07   0.2344565222852746 -5.004505176280155e-07   0.2300137240604118 -7.35632276641792e-07   0.2278354961627773 -9.890580426510745e-07
  0.2356790736192048 -4.168634150209677e-07   0.2344562607199437 -5.711254885632283e-07   0.7139199606950847    179.9999990935707   0.2520138165136993 2.379348282416532e-08
  0.2477312297767341 -5.166276670197637e-07   0.2508563360571532 -2.55189336453574e-07   0.2479265993858902 -3.014423723113734e-07   0.2452566435122354 -6.431193423889592e-07
  0.2330996148699119 -5.424025204847135e-07   0.2319174658527641 -6.937955492351769e-07   0.2520138165136997 2.379348282416321e-08   0.7227226240865883    179.9999992529505
  0.2511492191872453 -4.023651240073038e-07   0.2493084157089783 -2.788842860402688e-07   0.2548195564544329 5.152017248872921e-08   0.2504145343893348 -4.177075421423132e-07
  0.2314349943452222 -6.892357124272712e-07   0.2301782230529114 -8.379928676023589e-07   0.2477312297767343 -5.166276670197644e-07   0.2511492191872455 -4.023651240073049e-07
  0.7187492161400518    179.9999991055855   0.2522576610903916 -2.36253029013737e-08    0.250754497096344 -3.100630790296319e-07    0.255243390480981 7.339314239985049e-08
   0.235745631615959 -3.45354320466435e-07   0.2344565222852743 -5.004505176280145e-07   0.2508563360571534 -2.551893364535747e-07    0.249308415708978 -2.788842860402675e-07
  0.2522576610903915 -2.362530290137352e-08   0.7171934921375867    179.9999992864985   0.2471227414128403 -3.002593834900301e-07   0.2474461828567672 -4.149325537297244e-07
  0.2311636430598116 -5.848963732242749e-07   0.2300137240604116 -7.356322766417914e-07   0.2479265993858905 -3.014423723113749e-07   0.2548195564544327 5.152017248873084e-08
   0.250754497096344 -3.10063079029632e-07   0.2471227414128401 -3.002593834900292e-07   0.7171295298349168    179.9999992297092   0.2553287672549621 -1.482718222308167e-07
  0.2290600659662399 -8.405670963862351e-07   0.2278354961627775 -9.890580426510745e-07   0.2452566435122354 -6.431193423889594e-07   0.2504145343893349 -4.177075421423136e-07
  0.2552433904809809 7.339314239985099e-08   0.2474461828567674 -4.149325537297255e-07   0.2553287672549622 -1.482718222308175e-07   0.7105850817335201    179.9999988763775

!
             1.84785   0.6970273954613292    179.9999993259433    0.300844370874758 1.304028583194074e-06   0.2356790736192049 -4.501183649246463e-07   0.2330996148699116 -5.856722534389484e-07
  0.2314349943452218 -7.442189473735227e-07   0.2357456316159591 -3.729046887940388e-07   0.2311636430598114 -6.315560197404794e-07   0.2290600659662396 -9.07622673042197e-07
  0.3008443708747588 1.304028583194065e-06   0.6897020641190635    179.9999990019506   0.2344562607199441 -6.166865736249372e-07   0.2319174658527642 -7.491425415637091e-07
  0.2301782230529113 -9.048430871889227e-07   0.2344565222852746 -5.403735626670064e-07   0.2300137240604118 -7.943167608775253e-07   0.2278354961627773 -1.067959367341651e-06
  0.2356790736192048 -4.501183649246463e-07   0.2344562607199437 -6.166865736249357e-07   0.7139199606950847     179.999999021261   0.2520138165136993 2.569158913630559e-08
  0.2477312297767341 -5.578412313828837e-07   0.2508563360571532 -2.755468643486276e-07   0.2479265993858902 -3.254896996345365e-07   0.2452566435122354 -6.944236803149818e-07
  0.2330996148699119 -5.856722534389498e-07   0.2319174658527641 -7.491425415637087e-07   0.2520138165136997 2.569158913630338e-08   0.7227226240865884    179.9999991933552
  0.2511492191872453 -4.344634841888452e-07   0.2493084157089783 -3.011320598362155e-07   0.2548195564544329 5.563015358422883e-08   0.2504145343893348 -4.51029831620829e-07
  0.2314349943452222 -7.442189473735242e-07   0.2301782230529114 -9.048430871889227e-07   0.2477312297767343 -5.578412313828843e-07   0.2511492191872455 -4.344634841888461e-07
  0.7187492161400518    179.9999990342342   0.2522576610903916 -2.550999279291741e-08    0.250754497096344 -3.347981164269342e-07    0.255243390480981 7.924802240570994e-08
   0.235745631615959 -3.729046887940385e-07   0.2344565222852743 -5.403735626670054e-07   0.2508563360571534 -2.755468643486282e-07    0.249308415708978 -3.01132059836214e-07
  0.2522576610903915 -2.550999279291732e-08   0.7171934921375868    179.9999992295795   0.2471227414128403 -3.242123388137016e-07   0.2474461828567672 -4.480334706979198e-07
  0.2311636430598116 -6.315560197404806e-07   0.2300137240604116 -7.943167608775246e-07   0.2479265993858905 -3.254896996345382e-07   0.2548195564544327 5.563015358423047e-08
   0.250754497096344 -3.347981164269342e-07   0.2471227414128401 -3.242123388137007e-07   0.7171295298349168    179.9999991682599   0.2553287672549621 -1.601000898185706e-07
  0.2290600659662399 -9.07622673042198e-07   0.2278354961627775 -1.067959367341651e-06   0.2452566435122354 -6.944236803149822e-07   0.2504145343893349 -4.510298316208292e-07
  0.2552433904809809 7.924802240571049e-08   0.2474461828567674 -4.480334706979211e-07   0.2553287672549622 -1.601000898185716e-07   0.7105850817335201    179.9999987867414

!
             1.99526   0.6970273954613293    179.9999992721713    0.300844370874758 1.408055887059994e-06   0.2356790736192049 -4.860260133666421e-07   0.2330996148699117 -6.323935494745764e-07
  0.2314349943452218 -8.035881142606245e-07   0.2357456316159591 -4.026527095614871e-07   0.2311636430598114 -6.819376377668044e-07   0.2290600659662396 -9.800271746159992e-07
  0.3008443708747589 1.408055887059983e-06   0.6897020641190635    179.9999989223324   0.2344562607199441 -6.658819995621357e-07   0.2319174658527642 -8.089044822255087e-07
  0.2301782230529113 -9.770258506613469e-07   0.2344565222852746 -5.8348121040505e-07   0.2300137240604118 -8.576824202768033e-07   0.2278354961627774 -1.153154534882216e-06
  0.2356790736192048 -4.860260133666422e-07   0.2344562607199437 -6.658819995621341e-07   0.7139199606950847    179.9999989431832   0.2520138165136993 2.774110460270301e-08
  0.2477312297767341 -6.023423412771668e-07   0.2508563360571532 -2.975282823607125e-07   0.2479265993858902 -3.514552469587929e-07   0.2452566435122354 -7.498204899668646e-07
   0.233099614869912 -6.323935494745779e-07   0.2319174658527641 -8.089044822255083e-07   0.2520138165136997 2.774110460270061e-08   0.7227226240865884     179.999999129006
  0.2511492191872453 -4.691222834443462e-07   0.2493084157089783 -3.251545058899843e-07   0.2548195564544329 6.006798183860593e-08   0.2504145343893348 -4.87010191216698e-07
  0.2314349943452222 -8.035881142606261e-07   0.2301782230529114 -9.770258506613469e-07   0.2477312297767343 -6.023423412771676e-07   0.2511492191872455 -4.691222834443473e-07
  0.7187492161400518    179.9999989571915   0.2522576610903916 -2.75450216305417e-08    0.250754497096344 -3.615062314484426e-07    0.255243390480981 8.55699375951603e-08
   0.235745631615959 -4.026527095614868e-07   0.2344565222852743 -5.834812104050487e-07   0.2508563360571534 -2.975282823607132e-07    0.249308415708978 -3.251545058899827e-07
  0.2522576610903915 -2.75450216305417e-08   0.7171934921375868    179.9999991681201   0.2471227414128403 -3.500759862225973e-07   0.2474461828567672 -4.837747992232764e-07
  0.2311636430598116 -6.819376377668053e-07   0.2300137240604116 -8.576824202768028e-07   0.2479265993858905 -3.514552469587946e-07   0.2548195564544327 6.006798183860766e-08
   0.250754497096344 -3.615062314484427e-07   0.2471227414128401 -3.500759862225963e-07   0.7171295298349168    179.9999991019088   0.2553287672549621 -1.728718809488873e-07
  0.2290600659662399 -9.800271746160003e-07   0.2278354961627775 -1.153154534882216e-06   0.2452566435122354 -7.498204899668649e-07   0.2504145343893349 -4.870101912166983e-07
  0.2552433904809809 8.556993759516077e-08   0.2474461828567674 -4.837747992232779e-07   0.2553287672549622 -1.728718809488883e-07   0.7105850817335202    179.9999986899551

!
             2.15443   0.6970273954613293    179.9999992141095    0.300844370874758 1.520382228260307e-06   0.2356790736192049 -5.247982839216418e-07   0.2330996148699117 -6.828421533005782e-07
  0.2314349943452218 -8.676936043455575e-07   0.2357456316159591 -4.347739527984096e-07   0.2311636430598114 -7.363385748894559e-07   0.2290600659662396 -1.058207925687854e-06
  0.3008443708747589 1.520382228260297e-06   0.6897020641190635    179.9999988363625   0.2344562607199441 -7.190021131665308e-07   0.2319174658527642 -8.734340805915532e-07
  0.2301782230529113 -1.054967173922358e-06   0.2344565222852746 -6.30027878137662e-07   0.2300137240604118 -9.261032330207357e-07   0.2278354961627774 -1.245146359164366e-06
  0.2356790736192048 -5.247982839216417e-07   0.2344562607199437 -7.190021131665288e-07   0.7139199606950847    179.9999988588767   0.2520138165136993 2.995412527149432e-08
  0.2477312297767341 -6.503936380811353e-07   0.2508563360571532 -3.212633227581318e-07   0.2479265993858902 -3.794922605101251e-07   0.2452566435122354 -8.096367181216042e-07
   0.233099614869912 -6.828421533005798e-07   0.2319174658527641 -8.734340805915527e-07   0.2520138165136997 2.995412527149163e-08   0.7227226240865884    179.9999990595233
  0.2511492191872453 -5.065460747576772e-07   0.2493084157089783 -3.51093402426029e-07   0.2548195564544329 6.485984889816273e-08   0.2504145343893348 -5.258609736390199e-07
  0.2314349943452222 -8.676936043455593e-07   0.2301782230529114 -1.054967173922359e-06   0.2477312297767343 -6.503936380811363e-07   0.2511492191872455 -5.065460747576784e-07
  0.7187492161400518    179.9999988740024   0.2522576610903916 -2.974239996365779e-08    0.250754497096344 -3.903450528850719e-07    0.255243390480981 9.239619931895654e-08
   0.235745631615959 -4.347739527984091e-07   0.2344565222852743 -6.300278781376608e-07   0.2508563360571534 -3.212633227581324e-07    0.249308415708978 -3.510934024260272e-07
  0.2522576610903915 -2.974239996365761e-08   0.7171934921375868    179.9999991017577   0.2471227414128403 -3.780029705389525e-07   0.2474461828567672 -5.223674812759257e-07
  0.2311636430598116 -7.363385748894571e-07   0.2300137240604116 -9.261032330207348e-07   0.2479265993858905 -3.794922605101269e-07   0.2548195564544327 6.485984889816465e-08
   0.250754497096344 -3.903450528850718e-07   0.2471227414128401 -3.780029705389513e-07   0.7171295298349168    179.9999990302645   0.2553287672549621 -1.86662573535635e-07
  0.2290600659662399 -1.058207925687855e-06   0.2278354961627775 -1.245146359164366e-06   0.2452566435122354 -8.096367181216048e-07   0.2504145343893349 -5.258609736390202e-07
  0.2552433904809809 9.239619931895703e-08   0.2474461828567674 -5.223674812759272e-07   0.2553287672549622 -1.866625735356362e-07   0.7105850817335202    179.9999985854475

!
             2.32631   0.6970273954613293    179.9999991514113   0.3008443708747581 1.641678022225941e-06   0.2356790736192049 -5.666665873895899e-07   0.2330996148699117 -7.373191654612443e-07
  0.2314349943452218 -9.369180287710041e-07   0.2357456316159591 -4.694601329049763e-07   0.2311636430598114 -7.950835210014206e-07   0.2290600659662396 -1.142631545052246e-06
   0.300844370874759 1.64167802222593e-06   0.6897020641190633    179.9999987435277   0.2344562607199441 -7.763639597853872e-07   0.2319174658527642 -9.43116479078427e-07