! Touchstone file exported from Ansys Full-Wave Spice
! Project: 0000_PSI_S-parameter_Sweep
!  Design: unknown
! Creation time: Tue Jun 17 18:13:01 2025
! Notes: ! Touchstone(R) file created by SIwave 2025 R1
!      : ! Touchstone(R) file created on Tue Jun 17 18:13:01 2025

# HZ S RI R 0.1
! Modal data exported
! Port[1] = PORT_1_BGA1_GRP_1_1_VDD_075_BGA1_GRP_1_1_VSS
! Port[2] = PORT_2_DIE1_GRP_0_0_VDD_075_DIE1_GRP_0_0_VSS
! Port[3] = PORT_3_DIE1_GRP_0_1_VDD_075_DIE1_GRP_0_1_VSS
! Port[4] = PORT_4_DIE1_GRP_1_0_VDD_075_DIE1_GRP_1_0_VSS
! Port[5] = PORT_5_DIE1_GRP_1_1_VDD_075_DIE1_GRP_1_1_VSS
! Port[6] = PORT_6_DIE1_GRP_2_0_VDD_075_DIE1_GRP_2_0_VSS
! Port[7] = PORT_7_DIE1_GRP_2_1_VDD_075_DIE1_GRP_2_1_VSS
! Port[8] = VDD_075_B3_2
! Port[9] = VDD_075_B4_2
! Port[10] = VDD_075_C37_2
! Port[11] = VDD_075_C38_2
! Port[12] = VDD_075_C78_2

0.0000000000000000e+00 -7.9848023786197964e-01 0.0000000000000000e+00 1.5335753855219758e-01 0.0000000000000000e+00 1.7857532565762660e-01 0.0000000000000000e+00 1.6474968525356165e-01 0.0000000000000000e+00 
                       1.7077663087277681e-01 0.0000000000000000e+00 1.6185528565415713e-01 0.0000000000000000e+00 1.6659778683525134e-01 0.0000000000000000e+00 1.5782359221532316e-01 0.0000000000000000e+00 
                       1.5626756147962728e-01 0.0000000000000000e+00 1.6154459324710088e-01 0.0000000000000000e+00 1.6212522970407239e-01 0.0000000000000000e+00 1.6480700839008211e-01 0.0000000000000000e+00 
                       1.5335753855219758e-01 0.0000000000000000e+00 -6.2744310577522278e-01 0.0000000000000000e+00 1.5290088875437852e-01 0.0000000000000000e+00 1.5567728543372933e-01 0.0000000000000000e+00 
                       1.5479682039113857e-01 0.0000000000000000e+00 1.4881035957486677e-01 0.0000000000000000e+00 1.5150553040748546e-01 0.0000000000000000e+00 1.4574201897490871e-01 0.0000000000000000e+00 
                       1.4431813097903851e-01 0.0000000000000000e+00 1.3878502449623170e-01 0.0000000000000000e+00 1.3933279866892617e-01 0.0000000000000000e+00 1.4221670954211890e-01 0.0000000000000000e+00 
                       1.7857532565762660e-01 0.0000000000000000e+00 1.5290088875437852e-01 0.0000000000000000e+00 -8.1009186044570169e-01 0.0000000000000000e+00 1.6194154493688506e-01 0.0000000000000000e+00 
                       1.6767600618102332e-01 0.0000000000000000e+00 1.5896424998212993e-01 0.0000000000000000e+00 1.6358835592122750e-01 0.0000000000000000e+00 1.5502665096094387e-01 0.0000000000000000e+00 
                       1.5349913571875606e-01 0.0000000000000000e+00 1.7134792835667889e-01 0.0000000000000000e+00 1.7197531312746583e-01 0.0000000000000000e+00 1.7459646084838260e-01 0.0000000000000000e+00 
                       1.6474968525356165e-01 0.0000000000000000e+00 1.5567728543372933e-01 0.0000000000000000e+00 1.6194154493688506e-01 0.0000000000000000e+00 -7.9552264526371319e-01 0.0000000000000000e+00 
                       1.7426790585892557e-01 0.0000000000000000e+00 1.7578376167259974e-01 0.0000000000000000e+00 1.7239463204296901e-01 0.0000000000000000e+00 1.7424180169758083e-01 0.0000000000000000e+00 
                       1.7259703046536570e-01 0.0000000000000000e+00 1.4669788205988821e-01 0.0000000000000000e+00 1.4724525685276679e-01 0.0000000000000000e+00 1.4992585898923708e-01 0.0000000000000000e+00 
                       1.7077663087277681e-01 0.0000000000000000e+00 1.5479682039113857e-01 0.0000000000000000e+00 1.6767600618102332e-01 0.0000000000000000e+00 1.7426790585892557e-01 0.0000000000000000e+00 
                       -8.1548097950682874e-01 0.0000000000000000e+00 1.7342117353440681e-01 0.0000000000000000e+00 1.7962544661930141e-01 0.0000000000000000e+00 1.6864275596096445e-01 0.0000000000000000e+00 
                       1.6697424337759958e-01 0.0000000000000000e+00 1.5183216990834242e-01 0.0000000000000000e+00 1.5238894880431658e-01 0.0000000000000000e+00 1.5507887799782999e-01 0.0000000000000000e+00 
                       1.6185528565415713e-01 0.0000000000000000e+00 1.4881035957486677e-01 0.0000000000000000e+00 1.5896424998212993e-01 0.0000000000000000e+00 1.7578376167259974e-01 0.0000000000000000e+00 
                       1.7342117353440681e-01 0.0000000000000000e+00 -7.9565128919568340e-01 0.0000000000000000e+00 1.7799258813363461e-01 0.0000000000000000e+00 1.8252167659261825e-01 0.0000000000000000e+00 
                       1.8075237087774762e-01 0.0000000000000000e+00 1.4396794195136314e-01 0.0000000000000000e+00 1.4449943339410407e-01 0.0000000000000000e+00 1.4708244782785213e-01 0.0000000000000000e+00 
                       1.6659778683525134e-01 0.0000000000000000e+00 1.5150553040748546e-01 0.0000000000000000e+00 1.6358835592122750e-01 0.0000000000000000e+00 1.7239463204296901e-01 0.0000000000000000e+00 
                       1.7962544661930141e-01 0.0000000000000000e+00 1.7799258813363461e-01 0.0000000000000000e+00 -7.9732007150208251e-01 0.0000000000000000e+00 1.6954868116930016e-01 0.0000000000000000e+00 
                       1.6789050815323378e-01 0.0000000000000000e+00 1.4814424804252219e-01 0.0000000000000000e+00 1.4869127045881889e-01 0.0000000000000000e+00 1.5134102371813396e-01 0.0000000000000000e+00 
                       1.5782359221532316e-01 0.0000000000000000e+00 1.4574201897490871e-01 0.0000000000000000e+00 1.5502665096094387e-01 0.0000000000000000e+00 1.7424180169758083e-01 0.0000000000000000e+00 
                       1.6864275596096445e-01 0.0000000000000000e+00 1.8252167659261825e-01 0.0000000000000000e+00 1.6954868116930016e-01 0.0000000000000000e+00 -7.8052372848366702e-01 0.0000000000000000e+00 
                       2.0215966408418273e-01 0.0000000000000000e+00 1.4041077366855631e-01 0.0000000000000000e+00 1.4093277422212458e-01 0.0000000000000000e+00 1.4347333893696040e-01 0.0000000000000000e+00 
                       1.5626756147962728e-01 0.0000000000000000e+00 1.4431813097903851e-01 0.0000000000000000e+00 1.5349913571875606e-01 0.0000000000000000e+00 1.7259703046536570e-01 0.0000000000000000e+00 
                       1.6697424337759958e-01 0.0000000000000000e+00 1.8075237087774762e-01 0.0000000000000000e+00 1.6789050815323378e-01 0.0000000000000000e+00 2.0215966408418273e-01 0.0000000000000000e+00 
                       -7.6509111815858932e-01 0.0000000000000000e+00 1.3902755476057851e-01 0.0000000000000000e+00 1.3954447376683932e-01 0.0000000000000000e+00 1.4206044449541577e-01 0.0000000000000000e+00 
                       1.6154459324710088e-01 0.0000000000000000e+00 1.3878502449623170e-01 0.0000000000000000e+00 1.7134792835667889e-01 0.0000000000000000e+00 1.4669788205988821e-01 0.0000000000000000e+00 
                       1.5183216990834242e-01 0.0000000000000000e+00 1.4396794195136314e-01 0.0000000000000000e+00 1.4814424804252219e-01 0.0000000000000000e+00 1.4041077366855631e-01 0.0000000000000000e+00 
                       1.3902755476057851e-01 0.0000000000000000e+00 -7.2154014867200456e-01 0.0000000000000000e+00 2.2026140022218252e-01 0.0000000000000000e+00 1.5952063195835639e-01 0.0000000000000000e+00 
                       1.6212522970407239e-01 0.0000000000000000e+00 1.3933279866892617e-01 0.0000000000000000e+00 1.7197531312746583e-01 0.0000000000000000e+00 1.4724525685276679e-01 0.0000000000000000e+00 
                       1.5238894880431658e-01 0.0000000000000000e+00 1.4449943339410407e-01 0.0000000000000000e+00 1.4869127045881889e-01 0.0000000000000000e+00 1.4093277422212458e-01 0.0000000000000000e+00 
                       1.3954447376683932e-01 0.0000000000000000e+00 2.2026140022218252e-01 0.0000000000000000e+00 -7.2760650096474255e-01 0.0000000000000000e+00 1.6060960174292244e-01 0.0000000000000000e+00 
                       1.6480700839008211e-01 0.0000000000000000e+00 1.4221670954211890e-01 0.0000000000000000e+00 1.7459646084838260e-01 0.0000000000000000e+00 1.4992585898923708e-01 0.0000000000000000e+00 
                       1.5507887799782999e-01 0.0000000000000000e+00 1.4708244782785213e-01 0.0000000000000000e+00 1.5134102371813396e-01 0.0000000000000000e+00 1.4347333893696040e-01 0.0000000000000000e+00 
                       1.4206044449541577e-01 0.0000000000000000e+00 1.5952063195835639e-01 0.0000000000000000e+00 1.6060960174292244e-01 0.0000000000000000e+00 -6.9071240444749615e-01 0.0000000000000000e+00 

1.0000000000000000e+00 -7.9848001610627595e-01 9.9428957130717863e-09 1.5335803999133810e-01 -7.7599439500796219e-10 1.7857518330490413e-01 1.6507627799151757e-10 1.6474880060866939e-01 -4.6449004836788862e-10 
                       1.7077715626097534e-01 5.3327203348175654e-11 1.6185411042672029e-01 -3.1305891135903175e-10 1.6659731133588554e-01 -2.1755228420769940e-10 1.5782204275926726e-01 -7.9170461436534821e-10 
                       1.5626690147339517e-01 -7.0527470291511893e-10 1.6154492473943677e-01 -2.7116337481389549e-09 1.6212651820595064e-01 -2.4178055488549949e-09 1.6480824365846047e-01 -1.7487033302377724e-09 
                       1.5335803999133810e-01 -7.7599439500796219e-10 -6.2744158188140853e-01 7.0988102590052915e-09 1.5290108534790553e-01 -4.2802889189135306e-10 1.5567675959807117e-01 -5.6278865925620840e-11 
                       1.5479759670060608e-01 -1.3678219496132763e-10 1.4880956076421203e-01 -7.7927611949382492e-11 1.5150538643380707e-01 -2.8122557733181812e-10 1.4574086610223294e-01 -1.6268049934995872e-10 
                       1.4431779676986117e-01 -6.1304811601203195e-11 1.3878559936340559e-01 -2.1063672956663627e-09 1.3933419714211401e-01 -1.8790401785804424e-09 1.4221807312591431e-01 -1.1432510175411578e-09 
                       1.7857518330490413e-01 1.6507627799151757e-10 1.5290108534790553e-01 -4.2802889189135306e-10 -8.1009237493905162e-01 3.4423258006568852e-09 1.6194035224556996e-01 -6.1021072429036230e-10 
                       1.6767618674981155e-01 -2.1256461667218234e-11 1.5896277779337470e-01 -3.2972097699880179e-10 1.6358756197094160e-01 -4.7638714568301818e-10 1.5502481902900273e-01 -8.5988817115934691e-10 
                       1.5349818068174886e-01 -8.7569540434926227e-10 1.7134795180811091e-01 -4.0601335368965025e-10 1.7197635054309865e-01 -8.1276806115128478e-11 1.7459743479225884e-01 5.1360629814203065e-10 
                       1.6474880060866939e-01 -4.6449004836788862e-10 1.5567675959807117e-01 -5.6278865925620840e-11 1.6194035224556996e-01 -6.1021072429036230e-10 -7.9552489013245786e-01 6.6901135137253968e-09 
                       1.7426726130543790e-01 6.4007644649182759e-10 1.7578131158743182e-01 3.1578018373207979e-10 1.7239295687353678e-01 2.8505761822147958e-10 1.7423894904640966e-01 3.8035947658819190e-10 
                       1.7259517083354928e-01 8.5390869581148205e-11 1.4669721980332603e-01 -2.8776702321537360e-09 1.4724546011626555e-01 -2.5838939264281739e-09 1.4992599793709138e-01 -1.7928132410251821e-09 
                       1.7077715626097534e-01 5.3327203348175654e-11 1.5479759670060608e-01 -1.3678219496132763e-10 1.6767618674981155e-01 -2.1256461667218234e-11 1.7426726130543790e-01 6.4007644649182759e-10 
                       -8.1548011092860673e-01 2.3766844378915613e-09 1.7342020550262341e-01 1.0776776081988815e-09 1.7962523150004581e-01 1.7335284543991573e-09 1.6864138295542613e-01 3.1843087735990821e-10 
                       1.6697381825104732e-01 2.0362278204368323e-10 1.5183276613028174e-01 -2.4916073882478813e-09 1.5239044555321385e-01 -2.1934410419676496e-09 1.5508033074146865e-01 -1.4542655509126850e-09 
                       1.6185411042672029e-01 -3.1305891135903175e-10 1.4880956076421203e-01 -7.7927611949382492e-11 1.5896277779337470e-01 -3.2972097699880179e-10 1.7578131158743182e-01 3.1578018373207979e-10 
                       1.7342020550262341e-01 1.0776776081988815e-09 -7.9565417995688814e-01 4.2780002458497797e-09 1.7799054726134872e-01 1.4254793398290547e-09 1.8251843238504428e-01 4.6045097450215917e-11 
                       1.8075017030452545e-01 -2.8271952800504779e-10 1.4396701889196697e-01 -2.5091905515276188e-09 1.4449935872650910e-01 -2.1989614657075118e-09 1.4708230489273957e-01 -1.4165326601685841e-09 
                       1.6659731133588554e-01 -2.1755228420769940e-10 1.5150538643380707e-01 -2.8122557733181812e-10 1.6358756197094160e-01 -4.7638714568301818e-10 1.7239295687353678e-01 2.8505761822147958e-10 
                       1.7962523150004581e-01 1.7335284543991573e-09 1.7799054726134872e-01 1.4254793398290547e-09 -7.9732143987348114e-01 3.9776414676107017e-09 1.6954628307638636e-01 9.9024170868271948e-11 
                       1.6788907316579704e-01 -1.0528427631862846e-10 1.4814395112765821e-01 -2.6056232579090280e-09 1.4869184896228715e-01 -2.3014922095516125e-09 1.5134154370330496e-01 -1.5354797597286284e-09 
                       1.5782204275926726e-01 -7.9170461436534821e-10 1.4574086610223294e-01 -1.6268049934995872e-10 1.5502481902900273e-01 -8.5988817115934691e-10 1.7423894904640966e-01 3.8035947658819190e-10 
                       1.6864138295542613e-01 3.1843087735990821e-10 1.8251843238504428e-01 4.6045097450215917e-11 1.6954628307638636e-01 9.9024170868271948e-11 -7.8052758715024073e-01 6.9695978965281945e-09 
                       2.0215702187158352e-01 1.2807899168855601e-09 1.4040951460418727e-01 -2.9104946609157369e-09 1.4093234126500309e-01 -2.6335502470146021e-09 1.4347283291099555e-01 -1.7341314302532646e-09 
                       1.5626690147339517e-01 -7.0527470291511893e-10 1.4431779676986117e-01 -6.1304811601203195e-11 1.5349818068174886e-01 -8.7569540434926227e-10 1.7259517083354928e-01 8.5390869581148205e-11 
                       1.6697381825104732e-01 2.0362278204368323e-10 1.8075017030452545e-01 -2.8271952800504779e-10 1.6788907316579704e-01 -1.0528427631862846e-10 2.0215702187158352e-01 1.2807899168855601e-09 
                       -7.6509251656937804e-01 7.6188896940350880e-09 1.3902708598264277e-01 -2.9030340403182746e-09 1.3954482583723593e-01 -2.6062484984443029e-09 1.4206073824655449e-01 -1.6555428872300156e-09 
                       1.6154492473943677e-01 -2.7116337481389549e-09 1.3878559936340559e-01 -2.1063672956663627e-09 1.7134795180811091e-01 -4.0601335368965025e-10 1.4669721980332603e-01 -2.8776702321537360e-09 
                       1.5183276613028174e-01 -2.4916073882478813e-09 1.4396701889196697e-01 -2.5091905515276188e-09 1.4814395112765821e-01 -2.6056232579090280e-09 1.4040951460418727e-01 -2.9104946609157369e-09 
                       1.3902708598264277e-01 -2.9030340403182746e-09 -7.2153969439361521e-01 1.6045021477058219e-08 2.2026324088535543e-01 6.4902967118389398e-09 1.5952198252389174e-01 -1.0242265932697844e-09 
                       1.6212651820595064e-01 -2.4178055488549949e-09 1.3933419714211401e-01 -1.8790401785804424e-09 1.7197635054309865e-01 -8.1276806115128478e-11 1.4724546011626555e-01 -2.5838939264281739e-09 
                       1.5239044555321385e-01 -2.1934410419676496e-09 1.4449935872650910e-01 -2.1989614657075118e-09 1.4869184896228715e-01 -2.3014922095516125e-09 1.4093234126500309e-01 -2.6335502470146021e-09 
                       1.3954482583723593e-01 -2.6062484984443029e-09 2.2026324088535543e-01 6.4902967118389398e-09 -7.2760312614170775e-01 1.3251771477067961e-08 1.6061190741256798e-01 -8.6506350050306208e-10 
                       1.6480824365846047e-01 -1.7487033302377724e-09 1.4221807312591431e-01 -1.1432510175411578e-09 1.7459743479225884e-01 5.1360629814203065e-10 1.4992599793709138e-01 -1.7928132410251821e-09 
                       1.5508033074146865e-01 -1.4542655509126850e-09 1.4708230489273957e-01 -1.4165326601685841e-09 1.5134154370330496e-01 -1.5354797597286284e-09 1.4347283291099555e-01 -1.7341314302532646e-09 
                       1.4206073824655449e-01 -1.6555428872300156e-09 1.5952198252389174e-01 -1.0242265932697844e-09 1.6061190741256798e-01 -8.6506350050306208e-10 -6.9070898596403840e-01 1.3838001194939876e-08 

1.1659100000000000e+00 -7.9848001610627639e-01 1.1592521540827542e-08 1.5335803999133782e-01 -9.0473962508355869e-10 1.7857518330490374e-01 1.9246408327331742e-10 1.6474880060866906e-01 -5.4155359229255580e-10 
                       1.7077715626097489e-01 6.2174719655837587e-11 1.6185411042672002e-01 -3.6499851534247799e-10 1.6659731133588512e-01 -2.5364638368043410e-10 1.5782204275926709e-01 -9.2305632693402994e-10 
                       1.5626690147339514e-01 -8.2228682887644182e-10 1.6154492473943638e-01 -3.1615209032912647e-09 1.6212651820595020e-01 -2.8189436674657459e-09 1.6480824365846003e-01 -2.0388306997569002e-09 
                       1.5335803999133782e-01 -9.0473962508355869e-10 -6.2744158188140953e-01 8.2765738690758777e-09 1.5290108534790534e-01 -4.9904316534471708e-10 1.5567675959807101e-01 -6.5616092571106660e-11 
                       1.5479759670060592e-01 -1.5947572892719447e-10 1.4880956076421203e-01 -9.0856582048445269e-11 1.5150538643380690e-01 -3.2788371286663173e-10 1.4574086610223305e-01 -1.8967082099729047e-10 
                       1.4431779676986142e-01 -7.1475892894960440e-11 1.3878559936340534e-01 -2.4558346936899181e-09 1.3933419714211379e-01 -2.1907917346082742e-09 1.4221807312591406e-01 -1.3329277938617987e-09 
                       1.7857518330490374e-01 1.9246408327331742e-10 1.5290108534790534e-01 -4.9904316534471708e-10 -8.1009237493905184e-01 4.0134420742445103e-09 1.6194035224556969e-01 -7.1145078555753870e-10 
                       1.6767618674981116e-01 -2.4783121222291531e-11 1.5896277779337445e-01 -3.8442498429251964e-10 1.6358756197094124e-01 -5.5542453702321199e-10 1.5502481902900264e-01 -1.0025522176356215e-09 
                       1.5349818068174886e-01 -1.0209820288843549e-09 1.7134795180811052e-01 -4.7337502920003597e-10 1.7197635054309832e-01 -9.4761441017568634e-11 1.7459743479225848e-01 5.9881871906710725e-10 
                       1.6474880060866906e-01 -5.4155359229255580e-10 1.5567675959807101e-01 -6.5616092571106660e-11 1.6194035224556969e-01 -7.1145078555753870e-10 -7.9552489013245820e-01 7.8000702467893469e-09 
                       1.7426726130543757e-01 7.4627152972958115e-10 1.7578131158743152e-01 3.6817127401516101e-10 1.7239295687353640e-01 3.3235152766062527e-10 1.7423894904640938e-01 4.4346491734841158e-10 
                       1.7259517083354903e-01 9.9558068753634342e-11 1.4669721980332573e-01 -3.3551045003703725e-09 1.4724546011626519e-01 -3.0125877677625013e-09 1.4992599793709102e-01 -2.0902588858432301e-09 
                       1.7077715626097489e-01 6.2174719655837587e-11 1.5479759670060592e-01 -1.5947572892719447e-10 1.6767618674981116e-01 -2.4783121222291531e-11 1.7426726130543757e-01 7.4627152972958115e-10 
                       -8.1548011092860695e-01 2.7710001529806118e-09 1.7342020550262321e-01 1.2564751001746785e-09 1.7962523150004547e-01 2.0211381602695231e-09 1.6864138295542608e-01 3.7126174422251933e-10 
                       1.6697381825104729e-01 2.3740583781270801e-10 1.5183276613028138e-01 -2.9049899700319027e-09 1.5239044555321352e-01 -2.5573548452411298e-09 1.5508033074146832e-01 -1.6955427484639551e-09 
                       1.6185411042672002e-01 -3.6499851534247799e-10 1.4880956076421203e-01 -9.0856582048445269e-11 1.5896277779337445e-01 -3.8442498429251964e-10 1.7578131158743152e-01 3.6817127401516101e-10 
                       1.7342020550262321e-01 1.2564751001746785e-09 -7.9565417995688859e-01 4.9877632666385539e-09 1.7799054726134844e-01 1.6619806171013254e-09 1.8251843238504389e-01 5.3684439567704548e-11 
                       1.8075017030452512e-01 -3.2962552489609066e-10 1.4396701889196681e-01 -2.9254903559307681e-09 1.4449935872650896e-01 -2.5637911624833998e-09 1.4708230489273941e-01 -1.6515495938167546e-09 
                       1.6659731133588512e-01 -2.5364638368043410e-10 1.5150538643380690e-01 -3.2788371286663173e-10 1.6358756197094124e-01 -5.5542453702321199e-10 1.7239295687353640e-01 3.3235152766062527e-10 
                       1.7962523150004547e-01 2.0211381602695231e-09 1.7799054726134844e-01 1.6619806171013254e-09 -7.9732143987348147e-01 4.6375719635006546e-09 1.6954628307638622e-01 1.1545327105715889e-10 
                       1.6788907316579704e-01 -1.2275199060259714e-10 1.4814395112765794e-01 -3.0379222126281140e-09 1.4869184896228688e-01 -2.6833327820391719e-09 1.5134154370330472e-01 -1.7902312066644051e-09 
                       1.5782204275926709e-01 -9.2305632693402994e-10 1.4574086610223305e-01 -1.8967082099729047e-10 1.5502481902900264e-01 -1.0025522176356215e-09 1.7423894904640938e-01 4.4346491734841158e-10 
                       1.6864138295542608e-01 3.7126174422251933e-10 1.8251843238504389e-01 5.3684439567704548e-11 1.6954628307638622e-01 1.1545327105715889e-10 -7.8052758715024129e-01 8.1259238835497036e-09 
                       2.0215702187158274e-01 1.4932857719974773e-09 1.4040951460418721e-01 -3.3933748301084897e-09 1.4093234126500301e-01 -3.0704825684972072e-09 1.4347283291099544e-01 -2.0218411758450983e-09 
                       1.5626690147339514e-01 -8.2228682887644182e-10 1.4431779676986142e-01 -7.1475892894960440e-11 1.5349818068174886e-01 -1.0209820288843549e-09 1.7259517083354903e-01 9.9558068753634342e-11 
                       1.6697381825104729e-01 2.3740583781270801e-10 1.8075017030452512e-01 -3.2962552489609066e-10 1.6788907316579704e-01 -1.2275199060259714e-10 2.0215702187158274e-01 1.4932857719974773e-09 
                       -7.6509251656937927e-01 8.8829396831666014e-09 1.3902708598264280e-01 -3.3846764179464957e-09 1.3954482583723599e-01 -3.0386511868200611e-09 1.4206073824655457e-01 -1.9302140076504857e-09 
                       1.6154492473943638e-01 -3.1615209032912647e-09 1.3878559936340534e-01 -2.4558346936899181e-09 1.7134795180811052e-01 -4.7337502920003597e-10 1.4669721980332573e-01 -3.3551045003703725e-09 
                       1.5183276613028138e-01 -2.9049899700319027e-09 1.4396701889196681e-01 -2.9254903559307681e-09 1.4814395112765794e-01 -3.0379222126281140e-09 1.4040951460418721e-01 -3.3933748301084897e-09 
                       1.3902708598264280e-01 -3.3846764179464957e-09 -7.2153969439361565e-01 1.8707050990310042e-08 2.2026324088535490e-01 7.5671018392996125e-09 1.5952198252389133e-01 -1.1941560273597812e-09 
                       1.6212651820595020e-01 -2.8189436674657459e-09 1.3933419714211379e-01 -2.1907917346082742e-09 1.7197635054309832e-01 -9.4761441017568634e-11 1.4724546011626519e-01 -3.0125877677625013e-09 
                       1.5239044555321352e-01 -2.5573548452411298e-09 1.4449935872650896e-01 -2.5637911624833998e-09 1.4869184896228688e-01 -2.6833327820391719e-09 1.4093234126500301e-01 -3.0704825684972072e-09 
                       1.3954482583723599e-01 -3.0386511868200611e-09 2.2026324088535490e-01 7.5671018392996125e-09 -7.2760312614170830e-01 1.5450372882844735e-08 1.6061190741256753e-01 -1.0085861858709897e-09 
                       1.6480824365846003e-01 -2.0388306997569002e-09 1.4221807312591406e-01 -1.3329277938617987e-09 1.7459743479225848e-01 5.9881871906710725e-10 1.4992599793709102e-01 -2.0902588858432301e-09 
                       1.5508033074146832e-01 -1.6955427484639551e-09 1.4708230489273941e-01 -1.6515495938167546e-09 1.5134154370330472e-01 -1.7902312066644051e-09 1.4347283291099544e-01 -2.0218411758450983e-09 
                       1.4206073824655457e-01 -1.9302140076504857e-09 1.5952198252389133e-01 -1.1941560273597812e-09 1.6061190741256753e-01 -1.0085861858709897e-09 -6.9070898596403918e-01 1.6133863973187047e-08 

1.3593599999999999e+00 -7.9848001610627628e-01 1.3515974716230779e-08 1.5335803999133793e-01 -1.0548557410475811e-09 1.7857518330490391e-01 2.2439808894096164e-10 1.6474880060866920e-01 -6.3140919241286631e-10 
                       1.7077715626097495e-01 7.2490866869969214e-11 1.6185411042672021e-01 -4.2555976200420413e-10 1.6659731133588532e-01 -2.9573187332734769e-10 1.5782204275926726e-01 -1.0762115848353942e-09 
                       1.5626690147339539e-01 -9.5872222040514824e-10 1.6154492473943638e-01 -3.6860864522686480e-09 1.6212651820595014e-01 -3.2866681513845602e-09 1.6480824365845997e-01 -2.3771173592800336e-09 
                       1.5335803999133793e-01 -1.0548557410475811e-09 -6.2744158188141097e-01 9.6498387134522334e-09 1.5290108534790539e-01 -5.8184535474864059e-10 1.5567675959807109e-01 -7.6503239401399431e-11 
                       1.5479759670060603e-01 -1.8593624477382359e-10 1.4880956076421234e-01 -1.0593167879746913e-10 1.5150538643380712e-01 -3.8228680102713513e-10 1.4574086610223330e-01 -2.2114136380704519e-10 
                       1.4431779676986170e-01 -8.3335308908255427e-11 1.3878559936340537e-01 -2.8633114473898342e-09 1.3933419714211379e-01 -2.5542920575975767e-09 1.4221807312591403e-01 -1.5540897034538586e-09 
                       1.7857518330490391e-01 2.2439808894096164e-10 1.5290108534790539e-01 -5.8184535474864059e-10 -8.1009237493905184e-01 4.6793600000537592e-09 1.6194035224556980e-01 -8.2949605045912997e-10 
                       1.6767618674981122e-01 -2.8895184025075551e-11 1.5896277779337467e-01 -4.4820950757234829e-10 1.6358756197094135e-01 -6.4758163064192522e-10 1.5502481902900281e-01 -1.1688975846189967e-09 
                       1.5349818068174911e-01 -1.1903853051245996e-09 1.7134795180811052e-01 -5.5191831288368480e-10 1.7197635054309826e-01 -1.1048443966653387e-10 1.7459743479225842e-01 6.9817585713743347e-10 
                       1.6474880060866920e-01 -6.3140919241286631e-10 1.5567675959807109e-01 -7.6503239401399431e-11 1.6194035224556980e-01 -8.2949605045912997e-10 -7.9552489013245831e-01 9.0942727058157227e-09 
                       1.7426726130543779e-01 8.7009431806833935e-10 1.7578131158743168e-01 4.2925895034188398e-10 1.7239295687353673e-01 3.8749592367783399e-10 1.7423894904640938e-01 5.1704545788612219e-10 
                       1.7259517083354903e-01 1.1607693226718693e-10 1.4669721980332581e-01 -3.9117898071885070e-09 1.4724546011626530e-01 -3.5124420483538996e-09 1.4992599793709119e-01 -2.4370786075895711e-09 
                       1.7077715626097495e-01 7.2490866869969214e-11 1.5479759670060603e-01 -1.8593624477382359e-10 1.6767618674981122e-01 -2.8895184025075551e-11 1.7426726130543779e-01 8.7009431806833935e-10 
                       -8.1548011092860673e-01 3.2307697572392890e-09 1.7342020550262344e-01 1.4649518332441040e-09 1.7962523150004572e-01 2.3564892395269502e-09 1.6864138295542622e-01 4.3286219721750666e-10 
                       1.6697381825104757e-01 2.7679666477079058e-10 1.5183276613028143e-01 -3.3869914196786199e-09 1.5239044555321352e-01 -2.9816760153003713e-09 1.5508033074146832e-01 -1.9768704195625669e-09 
                       1.6185411042672021e-01 -4.2555976200420413e-10 1.4880956076421234e-01 -1.0593167879746913e-10 1.5896277779337467e-01 -4.4820950757234829e-10 1.7578131158743168e-01 4.2925895034188398e-10 
                       1.7342020550262344e-01 1.4649518332441040e-09 -7.9565417995688903e-01 5.8153424139772483e-09 1.7799054726134850e-01 1.9377395951609573e-09 1.8251843238504356e-01 6.2591863456470247e-11 
                       1.8075017030452478e-01 -3.8431761780109949e-10 1.4396701889196692e-01 -3.4108932685039399e-09 1.4449935872650910e-01 -2.9891802585034894e-09 1.4708230489273955e-01 -1.9255778371876370e-09 
                       1.6659731133588532e-01 -2.9573187332734769e-10 1.5150538643380712e-01 -3.8228680102713513e-10 1.6358756197094135e-01 -6.4758163064192522e-10 1.7239295687353673e-01 3.8749592367783399e-10 
                       1.7962523150004572e-01 2.3564892395269502e-09 1.7799054726134850e-01 1.9377395951609573e-09 -7.9732143987348136e-01 5.4070467051717648e-09 1.6954628307638625e-01 1.3460949668794201e-10 
                       1.6788907316579713e-01 -1.4311923407817940e-10 1.4814395112765799e-01 -3.5419800322534358e-09 1.4869184896228693e-01 -3.1285564504599574e-09 1.5134154370330474e-01 -2.0872697664530528e-09 
                       1.5782204275926726e-01 -1.0762115848353942e-09 1.4574086610223330e-01 -2.2114136380704519e-10 1.5502481902900281e-01 -1.1688975846189967e-09 1.7423894904640938e-01 5.1704545788612219e-10 
                       1.6864138295542622e-01 4.3286219721750666e-10 1.8251843238504356e-01 6.2591863456470247e-11 1.6954628307638625e-01 1.3460949668794201e-10 -7.8052758715024229e-01 9.4741925964115875e-09 
                       2.0215702187158169e-01 1.7410545812146620e-09 1.4040951460418738e-01 -3.9564100226346791e-09 1.4093234126500317e-01 -3.5799428642554541e-09 1.4347283291099566e-01 -2.3573089012825990e-09 
                       1.5626690147339539e-01 -9.5872222040514824e-10 1.4431779676986170e-01 -8.3335308908255427e-11 1.5349818068174911e-01 -1.1903853051245996e-09 1.7259517083354903e-01 1.1607693226718693e-10 
                       1.6697381825104757e-01 2.7679666477079058e-10 1.8075017030452478e-01 -3.8431761780109949e-10 1.6788907316579713e-01 -1.4311923407817940e-10 2.0215702187158169e-01 1.7410545812146620e-09 
                       -7.6509251656938115e-01 1.0356813894267946e-08 1.3902708598264296e-01 -3.9462683534135144e-09 1.3954482583723618e-01 -3.5428299593126118e-09 1.4206073824655477e-01 -2.2504787794385017e-09 
                       1.6154492473943638e-01 -3.6860864522686480e-09 1.3878559936340537e-01 -2.8633114473898342e-09 1.7134795180811052e-01 -5.5191831288368480e-10 1.4669721980332581e-01 -3.9117898071885070e-09 
                       1.5183276613028143e-01 -3.3869914196786199e-09 1.4396701889196692e-01 -3.4108932685039399e-09 1.4814395112765799e-01 -3.5419800322534358e-09 1.4040951460418738e-01 -3.9564100226346791e-09 
                       1.3902708598264296e-01 -3.9462683534135144e-09 -7.2153969439361565e-01 2.1810960394570327e-08 2.2026324088535482e-01 8.8226497376429067e-09 1.5952198252389135e-01 -1.3922926622103526e-09 