! Touchstone data
! Created: 18-Apr-2025 by IdEM 2023 (2023.0.0)
!
!*********************************************************
! COMMENTS
!*********************************************************
!
!  Touchstone file exported from Ansys Full-Wave Spice
!  Project: 0000_PSI_S-parameter_Sweep
!   Design: unknown
!  Creation time: Fri Apr 18 11:30:09 2025
!  Notes: ! Touchstone(R) file created by SIwave 2025 R1
!       : ! Touchstone(R) file created on Fri Apr 18 11:30:09 2025
! 
!  Modal data exported
!  Port[1] = PORT_1_DIE1_VDDCR_ECCX13_Group_DIE1_GRP_1_0_VSS
!  Port[2] = PORT_2_BGA1_VDDCR_ECCX13_Group_BGA1_GRP_1_1_VSS
!  Port[3] = VDDCR_ECCX13_C18_2
!  Port[4] = VDDCR_ECCX13_C19_2
!  Port[5] = VDDCR_ECCX13_C21_2
!  Port[6] = VDDCR_ECCX13_C22_2
!  Port[7] = VDDCR_ECCX13_C100_2
!  Port[8] = VDDCR_ECCX13_C101_2
!  Port[9] = VDDCR_ECCX13_C104_2
!
!*********************************************************
!
!
!---------------------------
! Options Used in IdEM Flow
!---------------------------
!
! Fitting Options !
!
! Bandwidth: 1.0000e+09 Hz
! Order: [2 2 4] 
! SplitType: none 
! tol: 1.0000e-03 
! DC Point: enforced 
!
!---------------------------
!
! Passivity Options !
!
! Alg: SOC+HAM 
!    Max SOC it: 200 
!    Max HAM it: 50 
! Freq sampling: adaptive
! DC Point: enforced
! Optimization method: Model based
!
!---------------------------
!

# Hz S MA R 0.1

!
                   0    0.729896905653531                  180   0.2658141138377935                    0   0.2062766215708304                    0   0.2071146179030613                    0
  0.2054204618086489                    0   0.2040367387801671                    0   0.2088358500921938                    0   0.2131689904297044                    0
  0.2192295101209094                    0
  0.2658141138377943                    0   0.7243145578797963                  180   0.2054853813384573                    0   0.2063633887109422                    0
  0.2046778280656304                    0   0.2032583163869897                    0   0.2080318271554877                    0   0.2123336915669222                    0
  0.2183500097073511                    0
  0.2062766215708306                    0   0.2054853813384575                    0   0.7521746770802665                  180   0.2244284794207684                    0
   0.224586691367567                    0     0.22920746169574                    0   0.2254097168823264                    0   0.2199977949331662                    0
  0.2167825287611873                    0
  0.2071146179030615                    0   0.2063633887109421                    0   0.2244284794207687                    0   0.7546012414017851                  180
  0.2333116475134232                    0   0.2242168244634156                    0   0.2221625471100583                    0   0.2196707884626073                    0
  0.2173329467072853                    0
  0.2054204618086489                    0   0.2046778280656304                    0   0.2245866913675668                    0   0.2333116475134232                    0
  0.7484791184927969                  180   0.2260177175618622                    0   0.2209254207690507                    0    0.217992920058975                    0
  0.2155464302374169                    0
  0.2040367387801671                    0   0.2032583163869895                    0     0.22920746169574                    0   0.2242168244634155                    0
  0.2260177175618622                    0   0.7395762640002543                  180   0.2214278957146774                    0   0.2171492153450466                    0
  0.2142620929421317                    0
  0.2088358500921938                    0   0.2080318271554877                    0   0.2254097168823262                    0   0.2221625471100583                    0
  0.2209254207690503                    0   0.2214278957146775                    0    0.750863935251372                  180   0.2241534395739187                    0
  0.2199172368434352                    0
  0.2131689904297042                    0   0.2123336915669218                    0    0.219997794933166                    0   0.2196707884626069                    0
  0.2179929200589749                    0   0.2171492153450462                    0   0.2241534395739185                    0   0.7504280205369018                  180
   0.225961179056338                    0
  0.2192295101209094                    0   0.2183500097073511                    0   0.2167825287611873                    0   0.2173329467072854                    0
  0.2155464302374169                    0   0.2142620929421317                    0   0.2199172368434356                    0   0.2259611790563379                    0
  0.7473819354862796                  180

!
                   1    0.729896905653531     179.999999626222   0.2658141138377936 8.261031769026607e-07   0.2062766215708304 -4.057614362088474e-07   0.2071146179030613 -3.999220208366842e-07
  0.2054204618086489 -4.580713682306778e-07   0.2040367387801671 -4.712980925214347e-07   0.2088358500921938 -3.411173843479404e-07   0.2131689904297044 -2.163446959304608e-07
  0.2192295101209094 -7.409217972044521e-08
  0.2658141138377944 8.261031769026563e-07   0.7243145578797963    179.9999994479858   0.2054853813384573 -4.940699962042716e-07   0.2063633887109422 -4.883028908372128e-07
  0.2046778280656304 -5.440932605894435e-07   0.2032583163869896 -5.585105069484236e-07   0.2080318271554877 -4.297326495962088e-07   0.2123336915669221 -3.059090925589518e-07
  0.2183500097073511 -1.665485120892323e-07
  0.2062766215708306 -4.057614362088479e-07   0.2054853813384575 -4.940699962042721e-07   0.7521746770802665    179.9999997151059   0.2244284794207684 8.906197338486213e-09
   0.224586691367567 -6.522551671374216e-09     0.22920746169574 1.232403219997063e-07   0.2254097168823264 2.814579191234996e-08   0.2199977949331662 -1.126231604246604e-07
  0.2167825287611873 -1.897464588566808e-07
  0.2071146179030615 -3.999220208366847e-07   0.2063633887109421 -4.883028908372127e-07   0.2244284794207687 8.906197338485573e-09   0.7546012414017851    179.9999997409909
  0.2333116475134232 2.739883056507854e-07   0.2242168244634157 1.449804814087871e-09   0.2221625471100583 -5.139420608955311e-08   0.2196707884626073 -1.238549936781582e-07
  0.2173329467072853 -1.893043402284645e-07
  0.2054204618086489 -4.580713682306778e-07   0.2046778280656303 -5.440932605894433e-07   0.2245866913675668 -6.522551671373272e-09   0.2333116475134232 2.739883056507856e-07
  0.7484791184927969    179.9999996655649   0.2260177175618622 1.500849041634418e-08   0.2209254207690507 -9.526246747505125e-08    0.217992920058975 -1.772862494717342e-07
  0.2155464302374169 -2.449230722099018e-07
   0.204036738780167 -4.712980925214347e-07   0.2032583163869894 -5.585105069484233e-07     0.22920746169574 1.232403219997064e-07   0.2242168244634155 1.449804814088441e-09
  0.2260177175618622 1.500849041634426e-08   0.7395762640002543    179.9999996132897   0.2214278957146774 -7.106631180059851e-08   0.2171492153450466 -1.822720189947004e-07
  0.2142620929421317 -2.554864744493669e-07
  0.2088358500921938 -3.411173843479404e-07   0.2080318271554877 -4.297326495962086e-07   0.2254097168823262 2.814579191235091e-08   0.2221625471100583 -5.1394206089553e-08
  0.2209254207690503 -9.526246747504981e-08   0.2214278957146775 -7.106631180059879e-08    0.750863935251372    179.9999996984343   0.2241534395739187 -3.88860123843177e-09
  0.2199172368434352 -1.127608912307975e-07
  0.2131689904297042 -2.163446959304602e-07   0.2123336915669218 -3.059090925589507e-07    0.219997794933166 -1.126231604246596e-07   0.2196707884626069 -1.238549936781569e-07
  0.2179929200589749 -1.772862494717339e-07   0.2171492153450462 -1.822720189946994e-07   0.2241534395739185 -3.88860123843119e-09   0.7504280205369018    179.9999996952084
   0.225961179056338 5.20557950354969e-08
  0.2192295101209094 -7.409217972044495e-08   0.2183500097073511 -1.665485120892327e-07   0.2167825287611873 -1.89746458856681e-07   0.2173329467072854 -1.893043402284647e-07
  0.2155464302374169 -2.449230722099018e-07   0.2142620929421317 -2.554864744493668e-07   0.2199172368434356 -1.127608912307986e-07   0.2259611790563379 5.205579503549726e-08
  0.7473819354862796    179.9999996603537

!
             1.16591    0.729896905653531    179.9999995642085   0.2658141138377937 9.631619549825813e-07   0.2062766215708304 -4.730813160902572e-07   0.2071146179030613 -4.662730833136985e-07
  0.2054204618086489 -5.340699889338296e-07   0.2040367387801671 -5.494911590516658e-07   0.2088358500921938 -3.977121695851071e-07   0.2131689904297044 -2.522384444322836e-07
  0.2192295101209094 -8.638481325786426e-08
  0.2658141138377945 9.63161954982576e-07   0.7243145578797963    179.9999993564011   0.2054853813384573 -5.760411492745224e-07   0.2063633887109422 -5.693172234560149e-07
  0.2046778280656304 -6.34363773453838e-07   0.2032583163869896 -6.511729851562367e-07   0.2080318271554877 -5.010295934907157e-07   0.2123336915669221 -3.566624701054076e-07
  0.2183500097073511 -1.941805757299568e-07
  0.2062766215708306 -4.730813160902578e-07   0.2054853813384575 -5.760411492745229e-07   0.7521746770802665    179.9999996678391   0.2244284794207684 1.038382453891448e-08
   0.224586691367567 -7.604708219171905e-09     0.22920746169574 1.436871238226775e-07   0.2254097168823264 3.281546024852796e-08   0.2199977949331662 -1.313084689707159e-07
  0.2167825287611873 -2.212272938455926e-07
  0.2071146179030615 -4.66273083313699e-07   0.2063633887109421 -5.693172234560147e-07   0.2244284794207687 1.038382453891371e-08   0.7546012414017851    179.9999996980187
  0.2333116475134232 3.194457054413071e-07   0.2242168244634157 1.690341930793205e-09   0.2221625471100583 -5.992101882187086e-08   0.2196707884626073 -1.444037756793014e-07
  0.2173329467072853 -2.20711823315769e-07
  0.2054204618086489 -5.340699889338296e-07   0.2046778280656303 -6.343637734538378e-07   0.2245866913675668 -7.604708219170791e-09   0.2333116475134232 3.194457054413074e-07
  0.7484791184927969    179.9999996100788   0.2260177175618622 1.749854906131985e-08   0.2209254207690507 -1.11067463453837e-07    0.217992920058975 -2.066998111215896e-07
  0.2155464302374169 -2.855582591202466e-07
   0.204036738780167 -5.494911590516659e-07   0.2032583163869894 -6.511729851562364e-07     0.22920746169574 1.436871238226777e-07   0.2242168244634155 1.690341930793869e-09
  0.2260177175618622 1.749854906131997e-08   0.7395762640002543    179.9999995491306   0.2214278957146774 -8.285692359143579e-08   0.2171492153450466 -2.125127696661111e-07
  0.2142620929421317 -2.978742354252614e-07
  0.2088358500921938 -3.977121695851072e-07   0.2080318271554877 -5.010295934907157e-07   0.2254097168823262 3.281546024852902e-08   0.2221625471100583 -5.992101882187075e-08
  0.2209254207690503 -1.110674634538353e-07   0.2214278957146775 -8.285692359143609e-08    0.750863935251372    179.9999996484016   0.2241534395739187 -4.533759069900007e-09
  0.2199172368434352 -1.314690506948991e-07
  0.2131689904297042 -2.522384444322828e-07   0.2123336915669218 -3.566624701054063e-07    0.219997794933166 -1.313084689707148e-07   0.2196707884626069 -1.444037756792998e-07
  0.2179929200589749 -2.066998111215892e-07   0.2171492153450462 -2.125127696661099e-07   0.2241534395739185 -4.533759069899271e-09   0.7504280205369018    179.9999996446404
   0.225961179056338 6.069237198983616e-08
  0.2192295101209094 -8.638481325786396e-08   0.2183500097073511 -1.941805757299572e-07   0.2167825287611873 -2.212272938455929e-07   0.2173329467072854 -2.207118233157693e-07
  0.2155464302374169 -2.855582591202466e-07   0.2142620929421317 -2.978742354252612e-07   0.2199172368434356 -1.314690506949004e-07   0.2259611790563379 6.069237198983662e-08
  0.7473819354862796     179.999999604003

!
             1.35936    0.729896905653531    179.9999994919011   0.2658141138377937 1.122971614554401e-06   0.2062766215708304 -5.515758659248588e-07   0.2071146179030613 -5.43637998244555e-07
  0.2054204618086489 -6.226838951180542e-07   0.2040367387801671 -6.406637750499375e-07   0.2088358500921938 -4.637013275872163e-07   0.2131689904297044 -2.940903258600313e-07
  0.2192295101209094 -1.007179454247844e-07
  0.2658141138377945 1.122971614554395e-06   0.7243145578797963     179.999999249614   0.2054853813384573 -6.716189900402387e-07   0.2063633887109422 -6.637794176884737e-07
  0.2046778280656304 -7.396186147148658e-07   0.2032583163869896 -7.592168427254092e-07   0.2080318271554877 -5.841613745551023e-07   0.2123336915669221 -4.158405840609367e-07
  0.2183500097073511 -2.263993853936188e-07
  0.2062766215708306 -5.515758659248593e-07   0.2054853813384575 -6.716189900402392e-07   0.7521746770802665    179.9999996127264   0.2244284794207684 1.210672841404464e-08
   0.224586691367567 -8.866495839999242e-09     0.22920746169574 1.675279641135208e-07   0.2254097168823264 3.826026369397208e-08   0.2199977949331662 -1.530954193548664e-07
  0.2167825287611873 -2.579337463114176e-07
  0.2071146179030615 -5.436379982445556e-07   0.2063633887109421 -6.637794176884734e-07   0.2244284794207687 1.210672841404376e-08   0.7546012414017851    179.9999996479134
  0.2333116475134232 3.724487431694516e-07   0.2242168244634157 1.970806672078493e-09   0.2221625471100583 -6.986322798989489e-08   0.2196707884626073 -1.683635242063412e-07
  0.2173329467072853 -2.573327479329654e-07
  0.2054204618086489 -6.226838951180543e-07   0.2046778280656304 -7.396186147148657e-07   0.2245866913675668 -8.866495839997959e-09   0.2333116475134232 3.724487431694519e-07
  0.7484791184927969    179.9999995453823   0.2260177175618622 2.040194153236165e-08   0.2209254207690507 -1.294959877868856e-07    0.217992920058975 -2.409958360818966e-07
  0.2155464302374169 -3.329386274392521e-07
   0.204036738780167 -6.406637750499375e-07   0.2032583163869895 -7.592168427254088e-07     0.22920746169574 1.675279641135209e-07   0.2242168244634155 1.970806672079297e-09
  0.2260177175618622 2.040194153236177e-08   0.7395762640002543    179.9999994743215   0.2214278957146774 -9.660470160926157e-08   0.2171492153450466 -2.477732917406359e-07
  0.2142620929421317 -3.472980939074914e-07
  0.2088358500921938 -4.637013275872161e-07   0.2080318271554877 -5.84161374555102e-07   0.2254097168823262 3.826026369397336e-08   0.2221625471100583 -6.986322798989477e-08
  0.2209254207690503 -1.294959877868837e-07   0.2214278957146775 -9.660470160926196e-08    0.750863935251372    179.9999995900637   0.2241534395739187 -5.286008979474655e-09
  0.2199172368434352 -1.532826451034969e-07
  0.2131689904297042 -2.940903258600303e-07   0.2123336915669218 -4.158405840609354e-07    0.219997794933166 -1.530954193548652e-07   0.2196707884626069 -1.683635242063393e-07
  0.2179929200589749 -2.409958360818962e-07   0.2171492153450462 -2.477732917406346e-07   0.2241534395739185 -5.286008979473813e-09   0.7504280205369018    179.9999995856785
   0.225961179056338 7.07625655394531e-08
  0.2192295101209094 -1.00717945424784e-07   0.2183500097073511 -2.263993853936193e-07   0.2167825287611873 -2.579337463114179e-07   0.2173329467072854 -2.573327479329658e-07
  0.2155464302374169 -3.329386274392519e-07   0.2142620929421317 -3.472980939074912e-07   0.2199172368434356 -1.532826451034984e-07   0.2259611790563379 7.076256553945355e-08
  0.7473819354862796    179.9999995382984

!
              1.4678    0.729896905653531    179.9999994513687   0.2658141138377937 1.212554243057725e-06   0.2062766215708304 -5.95576636067346e-07   0.2071146179030613 -5.87005542184085e-07
  0.2054204618086489 -6.723571542889888e-07   0.2040367387801672 -6.917713402029616e-07   0.2088358500921938 -5.006920967459068e-07   0.2131689904297044 -3.175507446867304e-07
  0.2192295101209094 -1.087525013936695e-07
  0.2658141138377945 1.212554243057719e-06   0.7243145578797964    179.9999991897536   0.2054853813384573 -7.2519594042863e-07   0.2063633887109422 -7.167309831708608e-07
  0.2046778280656304 -7.98620087893185e-07   0.2032583163869896 -8.197817220988963e-07   0.2080318271554877 -6.307615830773152e-07   0.2123336915669221 -4.490133660580294e-07
  0.2183500097073511 -2.444599060445751e-07
  0.2062766215708306 -5.955766360673469e-07   0.2054853813384575 -7.251959404286304e-07   0.7521746770802665    179.9999995818324   0.2244284794207684 1.307251645343007e-08
   0.224586691367567 -9.573801343243096e-09     0.22920746169574 1.808921446311689e-07   0.2254097168823264 4.131239336894729e-08   0.2199977949331662 -1.653082748713166e-07
  0.2167825287611873 -2.78509852309836e-07
  0.2071146179030615 -5.870055421840857e-07   0.2063633887109421 -7.167309831708608e-07   0.2244284794207687 1.307251645342915e-08   0.7546012414017851    179.9999996198265
  0.2333116475134232 4.021600350342227e-07   0.2242168244634157 2.128023506118181e-09   0.2221625471100583 -7.543641569824605e-08   0.2196707884626073 -1.817943597208007e-07
  0.2173329467072853 -2.778609105873402e-07
   0.205420461808649 -6.723571542889888e-07   0.2046778280656304 -7.986200878931848e-07   0.2245866913675668 -9.573801343241679e-09   0.2333116475134232 4.02160035034223e-07
  0.7484791184927969    179.9999995091162   0.2260177175618622 2.202946223310996e-08   0.2209254207690507 -1.398262497598802e-07    0.217992920058975 -2.602207569746115e-07
  0.2155464302374169 -3.594980853896939e-07
  0.2040367387801671 -6.917713402029619e-07   0.2032583163869895 -8.19781722098896e-07     0.22920746169574 1.808921446311691e-07   0.2242168244634155 2.128023506119018e-09
  0.2260177175618622 2.202946223311014e-08   0.7395762640002543    179.9999994323866   0.2214278957146774 -1.043111324609185e-07   0.2171492153450466 -2.675388694804213e-07
  0.2142620929421317 -3.750030471967807e-07
  0.2088358500921938 -5.006920967459068e-07   0.2080318271554877 -6.307615830773148e-07   0.2254097168823262 4.131239336894865e-08   0.2221625471100583 -7.543641569824588e-08
  0.2209254207690503 -1.398262497598781e-07   0.2214278957146775 -1.043111324609189e-07    0.750863935251372    179.9999995573619   0.2241534395739187 -5.707688897770173e-09
  0.2199172368434352 -1.655104361485645e-07
  0.2131689904297042 -3.175507446867294e-07   0.2123336915669218 -4.49013366058028e-07    0.219997794933166 -1.653082748713153e-07   0.2196707884626069 -1.817943597207986e-07
  0.2179929200589749 -2.60220756974611e-07   0.2171492153450462 -2.675388694804197e-07   0.2241534395739185 -5.707688897769278e-09   0.7504280205369018    179.9999995526269
   0.225961179056338 7.640749595310238e-08
  0.2192295101209094 -1.087525013936691e-07   0.2183500097073511 -2.444599060445757e-07   0.2167825287611873 -2.785098523098364e-07   0.2173329467072854 -2.778609105873405e-07
  0.2155464302374169 -3.594980853896938e-07   0.2142620929421317 -3.750030471967806e-07   0.2199172368434356 -1.655104361485662e-07   0.2259611790563379 7.640749595310293e-08
  0.7473819354862796    179.9999995014672

!
             1.58489    0.729896905653531     179.999999407603   0.2658141138377938 1.309282664041257e-06   0.2062766215708303 -6.430872426330399e-07   0.2071146179030613 -6.338324116038526e-07
  0.2054204618086489 -7.25992730795119e-07   0.2040367387801671 -7.469556338562966e-07   0.2088358500921938 -5.406335312792072e-07   0.2131689904297044 -3.42882545133228e-07
  0.2192295101209094 -1.174279547171364e-07
  0.2658141138377946 1.30928266404125e-06   0.7243145578797962    179.9999991251182   0.2054853813384573 -7.830465962841881e-07   0.2063633887109421 -7.739063686589902e-07
  0.2046778280656304 -8.623279677756027e-07   0.2032583163869896 -8.85177717357487e-07   0.2080318271554877 -6.810789790185352e-07   0.2123336915669221 -4.848322617057571e-07
  0.2183500097073511 -2.639610713251034e-07
  0.2062766215708305 -6.430872426330408e-07   0.2054853813384575 -7.830465962841888e-07   0.7521746770802665    179.9999995484742   0.2244284794207684 1.411534309979342e-08
   0.224586691367567 -1.03375269184443e-08     0.22920746169574 1.953223539341144e-07   0.2254097168823264 4.460798414396434e-08   0.2199977949331662 -1.784953207254401e-07
  0.2167825287611873 -3.007272651773647e-07
  0.2071146179030615 -6.338324116038533e-07   0.2063633887109421 -7.739063686589901e-07   0.2244284794207687 1.411534309979242e-08   0.7546012414017851    179.9999995894991
  0.2333116475134233 4.342413257428731e-07   0.2242168244634157 2.297781151799712e-09   0.2221625471100583 -8.145416328927183e-08   0.2196707884626073 -1.962965409305762e-07
  0.2173329467072853 -3.00026555784691e-07
  0.2054204618086489 -7.25992730795119e-07   0.2046778280656303 -8.623279677756027e-07   0.2245866913675668 -1.03375269184428e-08   0.2333116475134232 4.342413257428736e-07
  0.7484791184927969    179.9999994699572   0.2260177175618622 2.378680637595975e-08   0.2209254207690507 -1.50980532076534e-07    0.217992920058975 -2.809792039252568e-07
  0.2155464302374169 -3.881761279147513e-07
   0.204036738780167 -7.469556338562965e-07   0.2032583163869895 -8.851777173574868e-07     0.22920746169574 1.953223539341146e-07   0.2242168244634155 2.29778115180064e-09
  0.2260177175618622 2.378680637595981e-08   0.7395762640002543    179.9999993871067   0.2214278957146774 -1.126322869096506e-07   0.2171492153450466 -2.888811001845107e-07
  0.2142620929421317 -4.049179584900571e-07
  0.2088358500921938 -5.406335312792072e-07   0.2080318271554877 -6.810789790185351e-07   0.2254097168823262 4.460798414396584e-08   0.2221625471100583 -8.145416328927166e-08
  0.2209254207690503 -1.509805320765317e-07   0.2214278957146776 -1.12632286909651e-07    0.750863935251372    179.9999995220516   0.2241534395739187 -6.163005216778164e-09
  0.2199172368434352 -1.787136089027786e-07
  0.2131689904297042 -3.42882545133227e-07   0.2123336915669218 -4.848322617057555e-07    0.219997794933166 -1.784953207254387e-07   0.2196707884626069 -1.96296540930574e-07
  0.2179929200589749 -2.809792039252563e-07   0.2171492153450462 -2.888811001845091e-07   0.2241534395739185 -6.163005216777163e-09   0.7504280205369018    179.9999995169389
   0.225961179056338 8.250270899380866e-08
  0.2192295101209094 -1.17427954717136e-07   0.2183500097073511 -2.639610713251039e-07   0.2167825287611873 -3.007272651773652e-07   0.2173329467072854 -3.000265557846914e-07
  0.2155464302374169 -3.881761279147511e-07   0.2142620929421317 -4.049179584900569e-07   0.2199172368434356 -1.787136089027804e-07   0.2259611790563379 8.250270899380934e-08
  0.7473819354862794     179.999999461698

!
             1.71133    0.729896905653531    179.9999993603425   0.2658141138377938 1.413735149728829e-06   0.2062766215708304 -6.943917186272868e-07   0.2071146179030613 -6.843985519184429e-07
  0.2054204618086489 -7.839112745942057e-07   0.2040367387801671 -8.065465646747069e-07   0.2088358500921938 -5.837644133561609e-07   0.2131689904297044 -3.702371684866754e-07
  0.2192295101209094 -1.267961699209895e-07
  0.2658141138377946 1.413735149728822e-06   0.7243145578797962    179.9999990553216   0.2054853813384573 -8.455168066042563e-07   0.2063633887109421 -8.356473861764476e-07
  0.2046778280656304 -9.31123119644532e-07   0.2032583163869896 -9.557957858560457e-07   0.2080318271554877 -7.354143752334799e-07   0.2123336915669221 -5.23511407368911e-07
  0.2183500097073511 -2.850194651936658e-07
  0.2062766215708306 -6.943917186272876e-07   0.2054853813384575 -8.45516806604257e-07   0.7521746770802665    179.9999995124522   0.2244284794207684 1.524144269127163e-08
   0.224586691367567 -1.116223835177286e-08     0.22920746169574 2.109048602477573e-07   0.2254097168823264 4.816673807336187e-08   0.2199977949331662 -1.927353931295341e-07
  0.2167825287611873 -3.247188074352034e-07
  0.2071146179030615 -6.843985519184436e-07   0.2063633887109421 -8.356473861764471e-07   0.2244284794207687 1.524144269127053e-08   0.7546012414017851      179.99999955675
  0.2333116475134233 4.688844071093584e-07   0.2242168244634157 2.481094472493002e-09   0.2221625471100583 -8.795244670723491e-08   0.2196707884626073 -2.119567663312425e-07
  0.2173329467072853 -3.23962196563178e-07
  0.2054204618086489 -7.839112745942061e-07   0.2046778280656303 -9.31123119644532e-07   0.2245866913675668 -1.116223835177122e-08   0.2333116475134232 4.688844071093587e-07
  0.7484791184927969    179.9999994276712   0.2260177175618622 2.568447990420226e-08   0.2209254207690507 -1.630255184640794e-07    0.217992920058975 -3.033952773084629e-07
  0.2155464302374169 -4.191442011649712e-07
   0.204036738780167 -8.06546564674707e-07   0.2032583163869895 -9.557957858560455e-07     0.22920746169574 2.109048602477575e-07   0.2242168244634155 2.481094472493963e-09
  0.2260177175618622 2.568447990420242e-08   0.7395762640002543    179.9999993382111   0.2214278957146774 -1.216179113737183e-07   0.2171492153450466 -3.119275742662006e-07
  0.2142620929421317 -4.37221668319435e-07
  0.2088358500921938 -5.837644133561607e-07   0.2080318271554877 -7.354143752334797e-07   0.2254097168823262 4.81667380733635e-08   0.2221625471100583 -8.795244670723473e-08
  0.2209254207690503 -1.63025518464077e-07   0.2214278957146776 -1.216179113737187e-07    0.750863935251372    179.9999994839216   0.2241534395739187 -6.654679957365466e-09
  0.2199172368434352 -1.929710959900006e-07
  0.2131689904297042 -3.702371684866744e-07   0.2123336915669218 -5.235114073689092e-07    0.219997794933166 -1.927353931295326e-07   0.2196707884626069 -2.119567663312402e-07
  0.2179929200589749 -3.033952773084623e-07   0.2171492153450462 -3.119275742661989e-07   0.2241534395739185 -6.654679957364413e-09   0.7504280205369018     179.999999478401
   0.225961179056338 8.908464371809697e-08
  0.2192295101209094 -1.26796169920989e-07   0.2183500097073511 -2.850194651936665e-07   0.2167825287611873 -3.247188074352039e-07   0.2173329467072854 -3.239621965631785e-07
  0.2155464302374169 -4.191442011649711e-07   0.2142620929421317 -4.372216683194348e-07   0.2199172368434356 -1.929710959900026e-07   0.2259611790563379 8.908464371809757e-08
  0.7473819354862794    179.9999994187531

!
             1.84785    0.729896905653531    179.9999993093144   0.2658141138377939 1.52651475543958e-06   0.2062766215708304 -7.497862698985184e-07   0.2071146179030613 -7.389959062030669e-07
  0.2054204618086489 -8.464471777850579e-07   0.2040367387801671 -8.708881802657332e-07   0.2088358500921938 -6.303337586673416e-07   0.2131689904297044 -3.997725463751019e-07
  0.2192295101209094 -1.369112342964247e-07
  0.2658141138377946 1.526514755439572e-06   0.7243145578797962    179.9999989799606   0.2054853813384573 -9.129672424860633e-07   0.2063633887109421 -9.023104968335437e-07
  0.2046778280656304 -1.005402731580203e-06   0.2032583163869896 -1.032043640264644e-06   0.2080318271554877 -7.940814765563541e-07   0.2123336915669221 -5.652741166850591e-07
  0.2183500097073511 -3.077566680640878e-07
  0.2062766215708306 -7.497862698985194e-07   0.2054853813384575 -9.129672424860643e-07   0.7521746770802665    179.9999994735585   0.2244284794207684 1.645731675192176e-08
   0.224586691367567 -1.205269710594884e-08     0.22920746169574 2.277296290071571e-07   0.2254097168823264 5.20092015852359e-08   0.2199977949331662 -2.081107069907088e-07
  0.2167825287611873 -3.506229939983175e-07
  0.2071146179030615 -7.389959062030677e-07   0.2063633887109421 -9.023104968335433e-07   0.2244284794207687 1.645731675192055e-08   0.7546012414017851    179.9999995213901
  0.2333116475134233 5.062892905968036e-07   0.2242168244634157 2.679021825712251e-09   0.2221625471100583 -9.49687837225807e-08   0.2196707884626073 -2.288654500681846e-07
  0.2173329467072853 -3.498060250911679e-07
  0.2054204618086489 -8.46447177785058e-07   0.2046778280656303 -1.005402731580203e-06   0.2245866913675668 -1.205269710594713e-08   0.2333116475134232 5.06289290596804e-07
  0.7484791184927969    179.9999993820141   0.2260177175618622 2.773343901584155e-08   0.2209254207690507 -1.760307505237734e-07    0.217992920058975 -3.275983960863441e-07
  0.2155464302374169 -4.525810989830669e-07
   0.204036738780167 -8.708881802657329e-07   0.2032583163869895 -1.032043640264644e-06     0.22920746169574 2.277296290071574e-07   0.2242168244634155 2.679021825713341e-09
  0.2260177175618622 2.773343901584176e-08   0.7395762640002543    179.9999992854174   0.2214278957146774 -1.31319884260736e-07   0.2171492153450466 -3.368113502993571e-07
  0.2142620929421317 -4.721006818112626e-07
  0.2088358500921938 -6.303337586673416e-07   0.2080318271554877 -7.940814765563539e-07   0.2254097168823262 5.200920158523758e-08   0.2221625471100583 -9.496878372258053e-08
  0.2209254207690503 -1.760307505237708e-07   0.2214278957146776 -1.313198842607364e-07    0.750863935251372    179.9999994427519   0.2241534395739187 -7.185551798436207e-09
  0.2199172368434352 -2.083652128608291e-07
  0.2131689904297042 -3.997725463751007e-07   0.2123336915669218 -5.652741166850572e-07    0.219997794933166 -2.081107069907072e-07   0.2196707884626069 -2.288654500681821e-07
  0.2179929200589749 -3.275983960863434e-07   0.2171492153450462 -3.368113502993552e-07   0.2241534395739185 -7.18555179843505e-09   0.7504280205369018    179.9999994367909
   0.225961179056338 9.619130085634296e-08
  0.2192295101209094 -1.369112342964242e-07   0.2183500097073511 -3.077566680640886e-07   0.2167825287611873 -3.506229939983179e-07   0.2173329467072854 -3.498060250911684e-07
  0.2155464302374169 -4.525810989830669e-07   0.2142620929421317 -4.721006818112624e-07   0.2199172368434356 -2.083652128608312e-07   0.2259611790563379 9.619130085634365e-08
  0.7473819354862794    179.9999993723846

!
             1.99526   0.7298969056535312    179.9999992542157   0.2658141138377939 1.648290624746801e-06   0.2062766215708304 -8.095995632100648e-07   0.2071146179030613 -7.979484112946028e-07